
                                 *****************
                                 * O   R   C   A *
                                 *****************

                                            #,
                                            ###
                                            ####
                                            #####
                                            ######
                                           ########,
                                     ,,################,,,,,
                               ,,#################################,,
                          ,,##########################################,,
                       ,#########################################, ''#####,
                    ,#############################################,,   '####,
                  ,##################################################,,,,####,
                ,###########''''           ''''###############################
              ,#####''   ,,,,##########,,,,          '''####'''          '####
            ,##' ,,,,###########################,,,                        '##
           ' ,,###''''                  '''############,,,
         ,,##''                                '''############,,,,        ,,,,,,###''
      ,#''                                            '''#######################'''
     '                                                          ''''####''''
             ,#######,   #######,   ,#######,      ##
            ,#'     '#,  ##    ##  ,#'     '#,    #''#        ,####,   ,####,
            ##       ##  ##   ,#'  ##            #'  '#       #'       #'  '#
            ##       ##  #######   ##           ,######,      #####,   #    #
            '#,     ,#'  ##    ##  '#,     ,#' ,#      #,     #,   #   #,  ,#
             '#######'   ##     ##  '#######'  #'      '#     '####' # '####'



                #########################################################
                #                        -***-                          #
                #          Department of theory and spectroscopy        #
                #                                                       #
                #                      Frank Neese                      #
                #                                                       #
                #     Directorship, Architecture, Infrastructure        #
                #                    SHARK, DRIVERS                     #
                #        Core code/Algorithms in most modules           #
                #                                                       #
                #        Max Planck Institute fuer Kohlenforschung      #
                #                Kaiser Wilhelm Platz 1                 #
                #                 D-45470 Muelheim/Ruhr                 #
                #                      Germany                          #
                #                                                       #
                #                  All rights reserved                  #
                #                        -***-                          #
                #########################################################


                         Program Version 6.0.0  -   RELEASE  -


 With contributions from (in alphabetic order):
   Daniel Aravena         : Magnetic Suceptibility
   Michael Atanasov       : Ab Initio Ligand Field Theory (pilot matlab implementation)
   Alexander A. Auer      : GIAO ZORA, VPT2 properties, NMR spectrum
   Ute Becker             : All parallelization in ORCA, NUMFREQ, NUMCALC
   Giovanni Bistoni       : ED, misc. LED, open-shell LED, HFLD
   Martin Brehm           : Molecular dynamics
   Dmytro Bykov           : pre 5.0 version of the SCF Hessian
   Marcos Casanova-Páez   : Triplet and SCS-CIS(D). UHF-(DLPNO)-IP/EA/STEOM-CCSD. UHF-CVS-IP/STEOM-CCSD
   Vijay G. Chilkuri      : MRCI spin determinant printing, contributions to CSF-ICE
   Pauline Colinet        : FMM embedding
   Dipayan Datta          : RHF DLPNO-CCSD density
   Achintya Kumar Dutta   : EOM-CC, STEOM-CC
   Nicolas Foglia         : Exact transition moments, OPA infrastructure, MCD improvements
   Dmitry Ganyushin       : Spin-Orbit,Spin-Spin,Magnetic field MRCI
   Miquel Garcia          : C-PCM and meta-GGA Hessian, CCSD/C-PCM, Gaussian charge scheme
   Tiago L. C. Gouveia    : GS-ROHF, GS-ROCIS
   Yang Guo               : DLPNO-NEVPT2, F12-NEVPT2, CIM, IAO-localization
   Andreas Hansen         : Spin unrestricted coupled pair/coupled cluster methods
   Ingolf Harden          : AUTO-CI MPn and infrastructure
   Benjamin Helmich-Paris : MC-RPA, TRAH-(SCF,CASSCF), AVAS, COSX integrals, SCF dyn. polar.
   Lee Huntington         : MR-EOM, pCC
   Robert Izsak           : Overlap fitted RIJCOSX, COSX-SCS-MP3, EOM
   Riya Kayal             : Wick's Theorem for AUTO-CI, AUTO-CI UHF-CCSDT
   Emily Kempfer          : AUTO-CI, RHF CISDT and CCSDT
   Christian Kollmar      : KDIIS, OOCD, Brueckner-CCSD(T), CCSD density, CASPT2, CASPT2-K, improved NEVPT2
   Axel Koslowski         : Symmetry handling
   Simone Kossmann        : Meta GGA functionals, TD-DFT gradient, OOMP2, (MP2 Hessian; deprecated post 5.0)
   Lucas Lang             : DCDCAS
   Marvin Lechner         : AUTO-CI (C++ implementation), FIC-MRCC
   Spencer Leger          : CASSCF response
   Dagmar Lenk            : GEPOL surface, SMD, ORCA-2-JSON
   Dimitrios Liakos       : Extrapolation schemes; Compound Job, initial MDCI parallelization
   Dimitrios Manganas     : Further ROCIS development; embedding schemes. LFT, Crystal Embedding
   Dimitrios Pantazis     : SARC Basis sets
   Anastasios Papadopoulos: AUTO-CI, single reference methods and gradients
   Taras Petrenko         : pre 6.0 DFT Hessian and TD-DFT gradient, (ASA, deprecated), ECA, 1-Electron XAS/XES, NRVS
   Peter Pinski           : DLPNO-MP2, DLPNO-MP2 Gradient
   Christoph Reimann      : Effective Core Potentials
   Marius Retegan         : Local ZFS, SOC
   Christoph Riplinger    : Optimizer, TS searches, QM/MM, DLPNO-CCSD(T), (RO)-DLPNO pert. Triples
   Michael Roemelt        : Original ROCIS implementation
   Masaaki Saitow         : Open-shell DLPNO-CCSD energy and density
   Barbara Sandhoefer     : DKH picture change effects
   Kantharuban Sivalingam : CASSCF convergence/infrastructure, NEVPT2 and variants, FIC-MRCI
   Bernardo de Souza      : ESD, SOC TD-DFT
   Georgi Stoychev        : AutoAux, RI-MP2 NMR, DLPNO-MP2 response, X2C
   Van Anh Tran           : RI-MP2 g-tensors
   Willem Van den Heuvel  : Paramagnetic NMR
   Zikuan Wang            : NOTCH, Electric field optimization
   Frank Wennmohs         : Technical directorship and infrastructure
   Hang Xu                : AUTO-CI-Response properties


 We gratefully acknowledge several colleagues who have allowed us to
 interface, adapt or use parts of their codes:
   Stefan Grimme, W. Hujo, H. Kruse, P. Pracht,  : VdW corrections, initial TS optimization,
                  C. Bannwarth, S. Ehlert,         DFT functionals, gCP, sTDA/sTD-DF
                  L. Wittmann, M. Mueller
   Ed Valeev, F. Pavosevic, A. Kumar             : LibInt (2-el integral package), F12 methods
   Garnet Chan, S. Sharma, J. Yang, R. Olivares  : DMRG
   Ulf Ekstrom                                   : XCFun DFT Library
   Mihaly Kallay                                 : mrcc  (arbitrary order and MRCC methods)
   Frank Weinhold                                : gennbo (NPA and NBO analysis)
   Simon Mueller                                 : openCOSMO-RS
   Christopher J. Cramer and Donald G. Truhlar   : smd solvation model
   Lars Goerigk                                  : TD-DFT with DH, B97 family of functionals
   V. Asgeirsson, H. Jonsson                     : NEB implementation
   FAccTs GmbH                                   : IRC, NEB, NEB-TS, DLPNO-Multilevel, CI-OPT
                                                   MM, QMMM, 2- and 3-layer-ONIOM, Crystal-QMMM,
                                                   LR-CPCM, SF, NACMEs, symmetry and pop. for TD-DFT,
                                                   nearIR, NL-DFT gradient (VV10), updates on ESD,
                                                   ML-optimized integration grids, MBIS, APM,
                                                   GOAT, DOCKER, SOLVATOR, interface openCOSMO-RS
   S Lehtola, MJT Oliveira, MAL Marques          : LibXC Library
   Liviu Ungur et al                             : ANISO software


 Your calculation uses the libint2 library for the computation of 2-el integrals
 For citations please refer to: http://libint.valeyev.net

 Your ORCA version has been built with support for libXC version: 6.2.2
 For citations please refer to: https://libxc.gitlab.io

 This ORCA versions uses:
   CBLAS   interface :  Fast vector & matrix operations
   LAPACKE interface :  Fast linear algebra routines
   SCALAPACK package :  Parallel linear algebra routines
   Shared memory     :  Shared parallel matrices
   BLAS/LAPACK       :  OpenBLAS 0.3.27  USE64BITINT DYNAMIC_ARCH NO_AFFINITY Haswell SINGLE_THREADED
        Core in use  :  Haswell
   Copyright (c) 2011-2014, The OpenBLAS Project


NOTE: MaxCore=25000 MB was set to SCF,MP2,MDCI,CIPSI,MRCI and CIS
      => If you want to overwrite this, your respective input block should be placed after the MaxCore statement
Setting NCore(C ) from 2 to 2
Setting NCore(Mg) from 2 to 10
Setting NCore(O ) from 2 to 2
SCAN-COORDS
================================================================================

----- Orbital basis set information -----
Your calculation utilizes the basis: def2-SVP
   F. Weigend and R. Ahlrichs, Phys. Chem. Chem. Phys. 7, 3297 (2005).

The basis set includes element-specific modifications.

Your calculation utilizes the basis: aug-cc-pVDZ
    H, B-Ne : Obtained from the ccRepo (grant-hill.group.shef.ac.uk/ccrepo) Feb. 2017
              R. A. Kendall, T. H. Dunning, Jr., R. J. Harrison, J. Chem. Phys. 96, 6796 (1992)
         He : Obtained from the ccRepo (grant-hill.group.shef.ac.uk/ccrepo) Feb. 2017
              D. E. Woon, T. H. Dunning, Jr., J. Chem. Phys. 100, 2975 (1994)
  Li-Be, Na : Obtained from the ccRepo (grant-hill.group.shef.ac.uk/ccrepo) Feb. 2017
              B. P. Prascher, D. E. Woon, K. A. Peterson, T. H. Dunning, Jr., A. K. Wilson, Theor. Chem. Acc. 128, 69 (2011)
         Mg : Obtained from the Peterson Research Group Website (tyr0.chem.wsu.edu/~kipeters) Feb. 2017
              B. P. Prascher, D. E. Woon, K. A. Peterson, T. H. Dunning, Jr., A. K. Wilson, Theor. Chem. Acc. 128, 69 (2011)
      Al-Ar : Obtained from the ccRepo (grant-hill.group.shef.ac.uk/ccrepo) Feb. 2017
              D. E. Woon, T. H. Dunning, Jr., J. Chem. Phys. 98, 1358 (1993)
      Sc-Zn : Obtained from the ccRepo (grant-hill.group.shef.ac.uk/ccrepo) Feb. 2017
              N. B. Balabanov, K. A. Peterson, J. Chem. Phys. 123, 064107 (2005)
              N. B. Balabanov, K. A. Peterson, J. Chem. Phys. 125, 074110 (2006)
      Ga-Kr : Obtained from the ccRepo (grant-hill.group.shef.ac.uk/ccrepo) Feb. 2017
              A. K. Wilson, D. E. Woon, K. A. Peterson, T. H. Dunning, Jr., J. Chem. Phys. 110, 7667 (1999)

Your calculation utilizes the basis: cc-pVDZ
       H, B-Ne : Obtained from the ccRepo (grant-hill.group.shef.ac.uk/ccrepo) Feb. 2017
                 T. H. Dunning, Jr., J. Chem. Phys. 90, 1007 (1989)
            He : Obtained from the ccRepo (grant-hill.group.shef.ac.uk/ccrepo) Feb. 2017
                 D. E. Woon, T. H. Dunning, Jr., J. Chem. Phys. 100, 2975 (1994)
  Li-Be, Na-Mg : Obtained from the ccRepo (grant-hill.group.shef.ac.uk/ccrepo) Feb. 2017
                 B. P. Prascher, D. E. Woon, K. A. Peterson, T. H. Dunning, Jr., A. K. Wilson, Theor. Chem. Acc. 128, 69 (2011)
         Al-Ar : Obtained from the ccRepo (grant-hill.group.shef.ac.uk/ccrepo) Feb. 2017
                 D. E. Woon, T. H. Dunning, Jr., J. Chem. Phys. 98, 1358 (1993)
            Ca : Obtained from the Peterson Research Group Website (tyr0.chem.wsu.edu/~kipeters) Feb. 2017
                 J. Koput, K. A. Peterson, J. Phys. Chem. 106, 9595 (2002)
         Sc-Zn : Obtained from the ccRepo (grant-hill.group.shef.ac.uk/ccrepo) Feb. 2017
                 N. B. Balabanov, K. A. Peterson, J. Chem. Phys. 123, 064107 (2005)
                 N. B. Balabanov, K. A. Peterson, J. Chem. Phys. 125, 074110 (2006)
         Ga-Kr : Obtained from the ccRepo (grant-hill.group.shef.ac.uk/ccrepo) Feb. 2017
                 A. K. Wilson, D. E. Woon, K. A. Peterson, T. H. Dunning, Jr., J. Chem. Phys. 110, 7667 (1999)

----- AuxJ basis set information -----
Your calculation utilizes the auxiliary basis: def2/J
   F. Weigend, Phys. Chem. Chem. Phys. 8, 1057 (2006).

----- AuxC basis set information -----
The basis set includes element-specific modifications.

Your calculation utilizes the auxiliary basis: aug-cc-pVDZ/C
  H-He, B, Ne, Al-Ar, Ga-Ge, Se-Br : Obtained from the EMSL Basis Set Exchange (bse.pnl.gov) Feb. 2017
                                     F. Weigend, A. Kohn, C. Hattig, J. Chem. Phys. 116, 3175 (2002)
                            Be, Mg : Obtained from the TURBOMOLE 7.0 basis set library
                                     C. Haettig, Phys. Chem. Chem. Phys. 7, 59 (2005)
                               C-F : Obtained from the EMSL Basis Set Exchange (bse.pnl.gov) Feb. 2017
                                     C. Haettig, Phys. Chem. Chem. Phys. 7, 59 (2005)
                                     F. Weigend, A. Kohn, C. Hattig, J. Chem. Phys. 116, 3175 (2002)
                                As : Obtained from the EMSL Basis Set Exchange (bse.pnl.gov) Feb. 2017
                                     C. Haettig, G. Schmitz, J. Kossmann, Phys. Chem. Chem. Phys. 14, 6549 (2012)
                                Kr : Obtained from the TURBOMOLE 7.0 basis set library
                                     F. Weigend, A. Kohn, C. Hattig, J. Chem. Phys. 116, 3175 (2002)
                                     S function revised in Sep. 2009

Your calculation utilizes the auxiliary basis: cc-pVDZ/C
  H-He, B, Ne, Al-Ar, Ga-Br : Obtained from the EMSL Basis Set Exchange (bse.pnl.gov) Feb. 2017
                              F. Weigend, A. Kohn, C. Hattig, J. Chem. Phys. 116, 3175 (2002)
               Li-Be, Na-Mg : Obtained from the EMSL Basis Set Exchange (bse.pnl.gov) Feb. 2017
                              C. Haettig, Phys. Chem. Chem. Phys. 7, 59 (2005)
                        C-F : Obtained from the EMSL Basis Set Exchange (bse.pnl.gov) Feb. 2017
                              C. Haettig, Phys. Chem. Chem. Phys. 7, 59 (2005)
                              F. Weigend, A. Kohn, C. Hattig, J. Chem. Phys. 116, 3175 (2002)
                         Kr : Obtained from the TURBOMOLE 7.0 basis set library
                              F. Weigend, A. Kohn, C. Hattig, J. Chem. Phys. 116, 3175 (2002)
                              S function revised in Sep. 2009

================================================================================
                                        WARNINGS
                       Please study these warnings very carefully!
================================================================================

WARNING: Old DensityContainer found on disk!
         Will remove this file -
         If you want to keep old densities, please start your calculation with a different basename.

WARNING: The globally-selected AuxJ basis set is optimized for use with ECPs
         Make sure a suitable alternative is explicitly given all heavy elements (Z>36)

WARNING: No MP2 level density has been requested!
         To calculate MP2 level properties use
         %mp2 Density relaxed end
         or
         %mp2 Density unrelaxed end

WARNING: Post HF methods need fully converged wavefunctions
  ===> : Setting SCFConvForced true
         You can overwrite this default with %scf ConvForced false


WARNING: The chosen methods will break translational/rotational symmetry
  ===> : Will NOT project out the translational and rotational degrees of freedom
         of the Hessians, in case Hessians are calculated!

WARNING: The chosen methods will break translational symmetry
  ===> : Will NOT exploit translational invariance of the Hessians,
         in case Hessians are calculated!

WARNING: The chosen methods will break translational symmetry
  ===> : Will NOT make the numerical gradients translationally invariant,
         in case numerical gradients are calculated!

================================================================================
                                       INPUT FILE
================================================================================
NAME = orca.inp
|  1> ! TightSCF RI-MP2 RIJCOSX SlowConv DIIS
|  2> %pal nprocs 8 end
|  3> %maxcore 25000
|  4> %pointcharges "orca.pc"
|  5> %method
|  6> Method hf
|  7> RI on
|  8> RunTyp Energy
|  9> NewNCore C 2 end
| 10> NewNCore Mg 10 end
| 11> NewNCore O 2 end
| 12> end
| 13> %basis
| 14> NewGTO C "aug-cc-pVDZ" end
| 15> NewGTO Mg "cc-pVDZ" end
| 16> NewGTO O "aug-cc-pVDZ" end
| 17> Aux "def2/J"
| 18> NewAuxCGTO C "aug-cc-pVDZ/C" end
| 19> NewAuxCGTO Mg "cc-pVDZ/C" end
| 20> NewAuxCGTO O "aug-cc-pVDZ/C" end
| 21> end
| 22> %scf
| 23> HFTyp rhf
| 24> SCFMode Direct
| 25> sthresh 1e-6
| 26> AutoTRAHIter 60
| 27> MaxIter 1000
| 28> end
| 29> %coords
| 30> CTyp xyz
| 31> Mult 1
| 32> Units angs
| 33> Charge -32
| 34> coords
| 35> C:                      0.00000000000    0.00000000000    2.44102235837
| 36> O:                      0.00000000000    0.00000000000    3.58784217303
| 37> Mg                      0.00000000000    0.00000000000    0.00000000000
| 38> O                      -2.12018425659    0.00000000000    0.00567209089
| 39> O                       0.00000000000    2.12018425659    0.00567209089
| 40> O                       2.12018425659    0.00000000000    0.00567209089
| 41> O                       0.00000000000   -2.12018425659    0.00567209089
| 42> O                       0.00000000000    0.00000000000   -2.14129966123
| 43> Mg                     -2.11144262254    2.11144262254   -0.04367284424
| 44> Mg                      2.11144262254    2.11144262254   -0.04367284424
| 45> Mg                      2.11144262254   -2.11144262254   -0.04367284424
| 46> Mg                     -2.11144262254   -2.11144262254   -0.04367284424
| 47> Mg                     -2.10705287155    0.00000000000   -2.14155206950
| 48> Mg                      0.00000000000    2.10705287155   -2.14155206950
| 49> Mg                      2.10705287155    0.00000000000   -2.14155206950
| 50> Mg                      0.00000000000   -2.10705287155   -2.14155206950
| 51> O                      -2.11070451449    2.11070451449   -2.14923989662
| 52> O                       2.11070451449    2.11070451449   -2.14923989662
| 53> O                       2.11070451449   -2.11070451449   -2.14923989662
| 54> O                      -2.11070451449   -2.11070451449   -2.14923989662
| 55> Mg                     -4.22049352791    0.00000000000   -0.04269731856
| 56> Mg                      0.00000000000    4.22049352791   -0.04269731856
| 57> Mg                      4.22049352791    0.00000000000   -0.04269731856
| 58> Mg                      0.00000000000   -4.22049352791   -0.04269731856
| 59> O                      -4.22049352791    2.11209139723    0.00772802266
| 60> O                      -2.11209139723    4.22049352791    0.00772802266
| 61> O                       2.11209139723    4.22049352791    0.00772802266
| 62> O                       4.22049352791    2.11209139723    0.00772802266
| 63> O                       4.22049352791   -2.11209139723    0.00772802266
| 64> O                       2.11209139723   -4.22049352791    0.00772802266
| 65> O                      -2.11209139723   -4.22049352791    0.00772802266
| 66> O                      -4.22049352791   -2.11209139723    0.00772802266
| 67> O                      -4.22049352791    0.00000000000   -2.15129719490
| 68> O                       0.00000000000    4.22049352791   -2.15129719490
| 69> O                       4.22049352791    0.00000000000   -2.15129719490
| 70> O                       0.00000000000   -4.22049352791   -2.15129719490
| 71> O                      -2.11024676395    0.00000000000   -4.26789528527
| 72> O                       0.00000000000    2.11024676395   -4.26789528527
| 73> O                       2.11024676395    0.00000000000   -4.26789528527
| 74> O                       0.00000000000   -2.11024676395   -4.26789528527
| 75> O                      -6.32080279923    0.00000000000    0.00567209089
| 76> O                       0.00000000000    6.32080279923    0.00567209089
| 77> O                       6.32080279923    0.00000000000    0.00567209089
| 78> O                       0.00000000000   -6.32080279923    0.00567209089
| 79> Mg>    2.00000000000    0.00000000000    0.00000000000   -4.26789528527
| 80> NewECP
| 81> N_core 0
| 82> lmax f
| 83> s 1
| 84> 1      1.732000000   14.676000000 2
| 85> p 1
| 86> 1      1.115000000    5.175700000 2
| 87> d 1
| 88> 1      1.203000000   -1.816000000 2
| 89> f 1
| 90> 1      1.000000000    0.000000000 2
| 91> end
| 92> Mg>    2.00000000000   -4.22049352791    2.10973412517   -2.14445912302
| 93> NewECP
| 94> N_core 0
| 95> lmax f
| 96> s 1
| 97> 1      1.732000000   14.676000000 2
| 98> p 1
| 99> 1      1.115000000    5.175700000 2
|100> d 1
|101> 1      1.203000000   -1.816000000 2
|102> f 1
|103> 1      1.000000000    0.000000000 2
|104> end
|105> Mg>    2.00000000000   -2.10973412517    4.22049352791   -2.14445912302
|106> NewECP
|107> N_core 0
|108> lmax f
|109> s 1
|110> 1      1.732000000   14.676000000 2
|111> p 1
|112> 1      1.115000000    5.175700000 2
|113> d 1
|114> 1      1.203000000   -1.816000000 2
|115> f 1
|116> 1      1.000000000    0.000000000 2
|117> end
|118> Mg>    2.00000000000    2.10973412517    4.22049352791   -2.14445912302
|119> NewECP
|120> N_core 0
|121> lmax f
|122> s 1
|123> 1      1.732000000   14.676000000 2
|124> p 1
|125> 1      1.115000000    5.175700000 2
|126> d 1
|127> 1      1.203000000   -1.816000000 2
|128> f 1
|129> 1      1.000000000    0.000000000 2
|130> end
|131> Mg>    2.00000000000    4.22049352791    2.10973412517   -2.14445912302
|132> NewECP
|133> N_core 0
|134> lmax f
|135> s 1
|136> 1      1.732000000   14.676000000 2
|137> p 1
|138> 1      1.115000000    5.175700000 2
|139> d 1
|140> 1      1.203000000   -1.816000000 2
|141> f 1
|142> 1      1.000000000    0.000000000 2
|143> end
|144> Mg>    2.00000000000    4.22049352791   -2.10973412517   -2.14445912302
|145> NewECP
|146> N_core 0
|147> lmax f
|148> s 1
|149> 1      1.732000000   14.676000000 2
|150> p 1
|151> 1      1.115000000    5.175700000 2
|152> d 1
|153> 1      1.203000000   -1.816000000 2
|154> f 1
|155> 1      1.000000000    0.000000000 2
|156> end
|157> Mg>    2.00000000000    2.10973412517   -4.22049352791   -2.14445912302
|158> NewECP
|159> N_core 0
|160> lmax f
|161> s 1
|162> 1      1.732000000   14.676000000 2
|163> p 1
|164> 1      1.115000000    5.175700000 2
|165> d 1
|166> 1      1.203000000   -1.816000000 2
|167> f 1
|168> 1      1.000000000    0.000000000 2
|169> end
|170> Mg>    2.00000000000   -2.10973412517   -4.22049352791   -2.14445912302
|171> NewECP
|172> N_core 0
|173> lmax f
|174> s 1
|175> 1      1.732000000   14.676000000 2
|176> p 1
|177> 1      1.115000000    5.175700000 2
|178> d 1
|179> 1      1.203000000   -1.816000000 2
|180> f 1
|181> 1      1.000000000    0.000000000 2
|182> end
|183> Mg>    2.00000000000   -4.22049352791   -2.10973412517   -2.14445912302
|184> NewECP
|185> N_core 0
|186> lmax f
|187> s 1
|188> 1      1.732000000   14.676000000 2
|189> p 1
|190> 1      1.115000000    5.175700000 2
|191> d 1
|192> 1      1.203000000   -1.816000000 2
|193> f 1
|194> 1      1.000000000    0.000000000 2
|195> end
|196> Mg>    2.00000000000   -2.11024676395    2.11024676395   -4.26789528527
|197> NewECP
|198> N_core 0
|199> lmax f
|200> s 1
|201> 1      1.732000000   14.676000000 2
|202> p 1
|203> 1      1.115000000    5.175700000 2
|204> d 1
|205> 1      1.203000000   -1.816000000 2
|206> f 1
|207> 1      1.000000000    0.000000000 2
|208> end
|209> Mg>    2.00000000000    2.11024676395    2.11024676395   -4.26789528527
|210> NewECP
|211> N_core 0
|212> lmax f
|213> s 1
|214> 1      1.732000000   14.676000000 2
|215> p 1
|216> 1      1.115000000    5.175700000 2
|217> d 1
|218> 1      1.203000000   -1.816000000 2
|219> f 1
|220> 1      1.000000000    0.000000000 2
|221> end
|222> Mg>    2.00000000000    2.11024676395   -2.11024676395   -4.26789528527
|223> NewECP
|224> N_core 0
|225> lmax f
|226> s 1
|227> 1      1.732000000   14.676000000 2
|228> p 1
|229> 1      1.115000000    5.175700000 2
|230> d 1
|231> 1      1.203000000   -1.816000000 2
|232> f 1
|233> 1      1.000000000    0.000000000 2
|234> end
|235> Mg>    2.00000000000   -2.11024676395   -2.11024676395   -4.26789528527
|236> NewECP
|237> N_core 0
|238> lmax f
|239> s 1
|240> 1      1.732000000   14.676000000 2
|241> p 1
|242> 1      1.115000000    5.175700000 2
|243> d 1
|244> 1      1.203000000   -1.816000000 2
|245> f 1
|246> 1      1.000000000    0.000000000 2
|247> end
|248> Mg>    2.00000000000   -4.22049352791    4.22049352791   -0.03992370948
|249> NewECP
|250> N_core 0
|251> lmax f
|252> s 1
|253> 1      1.732000000   14.676000000 2
|254> p 1
|255> 1      1.115000000    5.175700000 2
|256> d 1
|257> 1      1.203000000   -1.816000000 2
|258> f 1
|259> 1      1.000000000    0.000000000 2
|260> end
|261> Mg>    2.00000000000    4.22049352791    4.22049352791   -0.03992370948
|262> NewECP
|263> N_core 0
|264> lmax f
|265> s 1
|266> 1      1.732000000   14.676000000 2
|267> p 1
|268> 1      1.115000000    5.175700000 2
|269> d 1
|270> 1      1.203000000   -1.816000000 2
|271> f 1
|272> 1      1.000000000    0.000000000 2
|273> end
|274> Mg>    2.00000000000    4.22049352791   -4.22049352791   -0.03992370948
|275> NewECP
|276> N_core 0
|277> lmax f
|278> s 1
|279> 1      1.732000000   14.676000000 2
|280> p 1
|281> 1      1.115000000    5.175700000 2
|282> d 1
|283> 1      1.203000000   -1.816000000 2
|284> f 1
|285> 1      1.000000000    0.000000000 2
|286> end
|287> Mg>    2.00000000000   -4.22049352791   -4.22049352791   -0.03992370948
|288> NewECP
|289> N_core 0
|290> lmax f
|291> s 1
|292> 1      1.732000000   14.676000000 2
|293> p 1
|294> 1      1.115000000    5.175700000 2
|295> d 1
|296> 1      1.203000000   -1.816000000 2
|297> f 1
|298> 1      1.000000000    0.000000000 2
|299> end
|300> Mg>    2.00000000000   -4.22049352791    0.00000000000   -4.26789528527
|301> NewECP
|302> N_core 0
|303> lmax f
|304> s 1
|305> 1      1.732000000   14.676000000 2
|306> p 1
|307> 1      1.115000000    5.175700000 2
|308> d 1
|309> 1      1.203000000   -1.816000000 2
|310> f 1
|311> 1      1.000000000    0.000000000 2
|312> end
|313> Mg>    2.00000000000    0.00000000000    4.22049352791   -4.26789528527
|314> NewECP
|315> N_core 0
|316> lmax f
|317> s 1
|318> 1      1.732000000   14.676000000 2
|319> p 1
|320> 1      1.115000000    5.175700000 2
|321> d 1
|322> 1      1.203000000   -1.816000000 2
|323> f 1
|324> 1      1.000000000    0.000000000 2
|325> end
|326> Mg>    2.00000000000    4.22049352791    0.00000000000   -4.26789528527
|327> NewECP
|328> N_core 0
|329> lmax f
|330> s 1
|331> 1      1.732000000   14.676000000 2
|332> p 1
|333> 1      1.115000000    5.175700000 2
|334> d 1
|335> 1      1.203000000   -1.816000000 2
|336> f 1
|337> 1      1.000000000    0.000000000 2
|338> end
|339> Mg>    2.00000000000    0.00000000000   -4.22049352791   -4.26789528527
|340> NewECP
|341> N_core 0
|342> lmax f
|343> s 1
|344> 1      1.732000000   14.676000000 2
|345> p 1
|346> 1      1.115000000    5.175700000 2
|347> d 1
|348> 1      1.203000000   -1.816000000 2
|349> f 1
|350> 1      1.000000000    0.000000000 2
|351> end
|352> Mg>    2.00000000000   -6.32954443328    2.11144262254   -0.04367284424
|353> NewECP
|354> N_core 0
|355> lmax f
|356> s 1
|357> 1      1.732000000   14.676000000 2
|358> p 1
|359> 1      1.115000000    5.175700000 2
|360> d 1
|361> 1      1.203000000   -1.816000000 2
|362> f 1
|363> 1      1.000000000    0.000000000 2
|364> end
|365> Mg>    2.00000000000   -2.11144262254    6.32954443328   -0.04367284424
|366> NewECP
|367> N_core 0
|368> lmax f
|369> s 1
|370> 1      1.732000000   14.676000000 2
|371> p 1
|372> 1      1.115000000    5.175700000 2
|373> d 1
|374> 1      1.203000000   -1.816000000 2
|375> f 1
|376> 1      1.000000000    0.000000000 2
|377> end
|378> Mg>    2.00000000000    2.11144262254    6.32954443328   -0.04367284424
|379> NewECP
|380> N_core 0
|381> lmax f
|382> s 1
|383> 1      1.732000000   14.676000000 2
|384> p 1
|385> 1      1.115000000    5.175700000 2
|386> d 1
|387> 1      1.203000000   -1.816000000 2
|388> f 1
|389> 1      1.000000000    0.000000000 2
|390> end
|391> Mg>    2.00000000000    6.32954443328    2.11144262254   -0.04367284424
|392> NewECP
|393> N_core 0
|394> lmax f
|395> s 1
|396> 1      1.732000000   14.676000000 2
|397> p 1
|398> 1      1.115000000    5.175700000 2
|399> d 1
|400> 1      1.203000000   -1.816000000 2
|401> f 1
|402> 1      1.000000000    0.000000000 2
|403> end
|404> Mg>    2.00000000000    6.32954443328   -2.11144262254   -0.04367284424
|405> NewECP
|406> N_core 0
|407> lmax f
|408> s 1
|409> 1      1.732000000   14.676000000 2
|410> p 1
|411> 1      1.115000000    5.175700000 2
|412> d 1
|413> 1      1.203000000   -1.816000000 2
|414> f 1
|415> 1      1.000000000    0.000000000 2
|416> end
|417> Mg>    2.00000000000    2.11144262254   -6.32954443328   -0.04367284424
|418> NewECP
|419> N_core 0
|420> lmax f
|421> s 1
|422> 1      1.732000000   14.676000000 2
|423> p 1
|424> 1      1.115000000    5.175700000 2
|425> d 1
|426> 1      1.203000000   -1.816000000 2
|427> f 1
|428> 1      1.000000000    0.000000000 2
|429> end
|430> Mg>    2.00000000000   -2.11144262254   -6.32954443328   -0.04367284424
|431> NewECP
|432> N_core 0
|433> lmax f
|434> s 1
|435> 1      1.732000000   14.676000000 2
|436> p 1
|437> 1      1.115000000    5.175700000 2
|438> d 1
|439> 1      1.203000000   -1.816000000 2
|440> f 1
|441> 1      1.000000000    0.000000000 2
|442> end
|443> Mg>    2.00000000000   -6.32954443328   -2.11144262254   -0.04367284424
|444> NewECP
|445> N_core 0
|446> lmax f
|447> s 1
|448> 1      1.732000000   14.676000000 2
|449> p 1
|450> 1      1.115000000    5.175700000 2
|451> d 1
|452> 1      1.203000000   -1.816000000 2
|453> f 1
|454> 1      1.000000000    0.000000000 2
|455> end
|456> Mg>    2.00000000000   -6.33393418427    0.00000000000   -2.14155206950
|457> NewECP
|458> N_core 0
|459> lmax f
|460> s 1
|461> 1      1.732000000   14.676000000 2
|462> p 1
|463> 1      1.115000000    5.175700000 2
|464> d 1
|465> 1      1.203000000   -1.816000000 2
|466> f 1
|467> 1      1.000000000    0.000000000 2
|468> end
|469> Mg>    2.00000000000    0.00000000000    6.33393418427   -2.14155206950
|470> NewECP
|471> N_core 0
|472> lmax f
|473> s 1
|474> 1      1.732000000   14.676000000 2
|475> p 1
|476> 1      1.115000000    5.175700000 2
|477> d 1
|478> 1      1.203000000   -1.816000000 2
|479> f 1
|480> 1      1.000000000    0.000000000 2
|481> end
|482> Mg>    2.00000000000    6.33393418427    0.00000000000   -2.14155206950
|483> NewECP
|484> N_core 0
|485> lmax f
|486> s 1
|487> 1      1.732000000   14.676000000 2
|488> p 1
|489> 1      1.115000000    5.175700000 2
|490> d 1
|491> 1      1.203000000   -1.816000000 2
|492> f 1
|493> 1      1.000000000    0.000000000 2
|494> end
|495> Mg>    2.00000000000    0.00000000000   -6.33393418427   -2.14155206950
|496> NewECP
|497> N_core 0
|498> lmax f
|499> s 1
|500> 1      1.732000000   14.676000000 2
|501> p 1
|502> 1      1.115000000    5.175700000 2
|503> d 1
|504> 1      1.203000000   -1.816000000 2
|505> f 1
|506> 1      1.000000000    0.000000000 2
|507> end
|508> Mg>    2.00000000000   -2.11024676395    0.00000000000   -6.37814204923
|509> NewECP
|510> N_core 0
|511> lmax f
|512> s 1
|513> 1      1.732000000   14.676000000 2
|514> p 1
|515> 1      1.115000000    5.175700000 2
|516> d 1
|517> 1      1.203000000   -1.816000000 2
|518> f 1
|519> 1      1.000000000    0.000000000 2
|520> end
|521> Mg>    2.00000000000    0.00000000000    2.11024676395   -6.37814204923
|522> NewECP
|523> N_core 0
|524> lmax f
|525> s 1
|526> 1      1.732000000   14.676000000 2
|527> p 1
|528> 1      1.115000000    5.175700000 2
|529> d 1
|530> 1      1.203000000   -1.816000000 2
|531> f 1
|532> 1      1.000000000    0.000000000 2
|533> end
|534> Mg>    2.00000000000    2.11024676395    0.00000000000   -6.37814204923
|535> NewECP
|536> N_core 0
|537> lmax f
|538> s 1
|539> 1      1.732000000   14.676000000 2
|540> p 1
|541> 1      1.115000000    5.175700000 2
|542> d 1
|543> 1      1.203000000   -1.816000000 2
|544> f 1
|545> 1      1.000000000    0.000000000 2
|546> end
|547> Mg>    2.00000000000    0.00000000000   -2.11024676395   -6.37814204923
|548> NewECP
|549> N_core 0
|550> lmax f
|551> s 1
|552> 1      1.732000000   14.676000000 2
|553> p 1
|554> 1      1.115000000    5.175700000 2
|555> d 1
|556> 1      1.203000000   -1.816000000 2
|557> f 1
|558> 1      1.000000000    0.000000000 2
|559> end
|560> Mg>    2.00000000000   -4.22049352791    4.22049352791   -4.26789528527
|561> NewECP
|562> N_core 0
|563> lmax f
|564> s 1
|565> 1      1.732000000   14.676000000 2
|566> p 1
|567> 1      1.115000000    5.175700000 2
|568> d 1
|569> 1      1.203000000   -1.816000000 2
|570> f 1
|571> 1      1.000000000    0.000000000 2
|572> end
|573> Mg>    2.00000000000    4.22049352791    4.22049352791   -4.26789528527
|574> NewECP
|575> N_core 0
|576> lmax f
|577> s 1
|578> 1      1.732000000   14.676000000 2
|579> p 1
|580> 1      1.115000000    5.175700000 2
|581> d 1
|582> 1      1.203000000   -1.816000000 2
|583> f 1
|584> 1      1.000000000    0.000000000 2
|585> end
|586> Mg>    2.00000000000    4.22049352791   -4.22049352791   -4.26789528527
|587> NewECP
|588> N_core 0
|589> lmax f
|590> s 1
|591> 1      1.732000000   14.676000000 2
|592> p 1
|593> 1      1.115000000    5.175700000 2
|594> d 1
|595> 1      1.203000000   -1.816000000 2
|596> f 1
|597> 1      1.000000000    0.000000000 2
|598> end
|599> Mg>    2.00000000000   -4.22049352791   -4.22049352791   -4.26789528527
|600> NewECP
|601> N_core 0
|602> lmax f
|603> s 1
|604> 1      1.732000000   14.676000000 2
|605> p 1
|606> 1      1.115000000    5.175700000 2
|607> d 1
|608> 1      1.203000000   -1.816000000 2
|609> f 1
|610> 1      1.000000000    0.000000000 2
|611> end
|612> Mg>    2.00000000000   -6.33125293065    4.22049352791   -2.14445912302
|613> NewECP
|614> N_core 0
|615> lmax f
|616> s 1
|617> 1      1.732000000   14.676000000 2
|618> p 1
|619> 1      1.115000000    5.175700000 2
|620> d 1
|621> 1      1.203000000   -1.816000000 2
|622> f 1
|623> 1      1.000000000    0.000000000 2
|624> end
|625> Mg>    2.00000000000   -4.22049352791    6.33125293065   -2.14445912302
|626> NewECP
|627> N_core 0
|628> lmax f
|629> s 1
|630> 1      1.732000000   14.676000000 2
|631> p 1
|632> 1      1.115000000    5.175700000 2
|633> d 1
|634> 1      1.203000000   -1.816000000 2
|635> f 1
|636> 1      1.000000000    0.000000000 2
|637> end
|638> Mg>    2.00000000000    4.22049352791    6.33125293065   -2.14445912302
|639> NewECP
|640> N_core 0
|641> lmax f
|642> s 1
|643> 1      1.732000000   14.676000000 2
|644> p 1
|645> 1      1.115000000    5.175700000 2
|646> d 1
|647> 1      1.203000000   -1.816000000 2
|648> f 1
|649> 1      1.000000000    0.000000000 2
|650> end
|651> Mg>    2.00000000000    6.33125293065    4.22049352791   -2.14445912302
|652> NewECP
|653> N_core 0
|654> lmax f
|655> s 1
|656> 1      1.732000000   14.676000000 2
|657> p 1
|658> 1      1.115000000    5.175700000 2
|659> d 1
|660> 1      1.203000000   -1.816000000 2
|661> f 1
|662> 1      1.000000000    0.000000000 2
|663> end
|664> Mg>    2.00000000000    6.33125293065   -4.22049352791   -2.14445912302
|665> NewECP
|666> N_core 0
|667> lmax f
|668> s 1
|669> 1      1.732000000   14.676000000 2
|670> p 1
|671> 1      1.115000000    5.175700000 2
|672> d 1
|673> 1      1.203000000   -1.816000000 2
|674> f 1
|675> 1      1.000000000    0.000000000 2
|676> end
|677> Mg>    2.00000000000    4.22049352791   -6.33125293065   -2.14445912302
|678> NewECP
|679> N_core 0
|680> lmax f
|681> s 1
|682> 1      1.732000000   14.676000000 2
|683> p 1
|684> 1      1.115000000    5.175700000 2
|685> d 1
|686> 1      1.203000000   -1.816000000 2
|687> f 1
|688> 1      1.000000000    0.000000000 2
|689> end
|690> Mg>    2.00000000000   -4.22049352791   -6.33125293065   -2.14445912302
|691> NewECP
|692> N_core 0
|693> lmax f
|694> s 1
|695> 1      1.732000000   14.676000000 2
|696> p 1
|697> 1      1.115000000    5.175700000 2
|698> d 1
|699> 1      1.203000000   -1.816000000 2
|700> f 1
|701> 1      1.000000000    0.000000000 2
|702> end
|703> Mg>    2.00000000000   -6.33125293065   -4.22049352791   -2.14445912302
|704> NewECP
|705> N_core 0
|706> lmax f
|707> s 1
|708> 1      1.732000000   14.676000000 2
|709> p 1
|710> 1      1.115000000    5.175700000 2
|711> d 1
|712> 1      1.203000000   -1.816000000 2
|713> f 1
|714> 1      1.000000000    0.000000000 2
|715> end
|716> Mg>    2.00000000000   -6.33074029186    2.11024676395   -4.26789528527
|717> NewECP
|718> N_core 0
|719> lmax f
|720> s 1
|721> 1      1.732000000   14.676000000 2
|722> p 1
|723> 1      1.115000000    5.175700000 2
|724> d 1
|725> 1      1.203000000   -1.816000000 2
|726> f 1
|727> 1      1.000000000    0.000000000 2
|728> end
|729> Mg>    2.00000000000   -2.11024676395    6.33074029186   -4.26789528527
|730> NewECP
|731> N_core 0
|732> lmax f
|733> s 1
|734> 1      1.732000000   14.676000000 2
|735> p 1
|736> 1      1.115000000    5.175700000 2
|737> d 1
|738> 1      1.203000000   -1.816000000 2
|739> f 1
|740> 1      1.000000000    0.000000000 2
|741> end
|742> Mg>    2.00000000000    2.11024676395    6.33074029186   -4.26789528527
|743> NewECP
|744> N_core 0
|745> lmax f
|746> s 1
|747> 1      1.732000000   14.676000000 2
|748> p 1
|749> 1      1.115000000    5.175700000 2
|750> d 1
|751> 1      1.203000000   -1.816000000 2
|752> f 1
|753> 1      1.000000000    0.000000000 2
|754> end
|755> Mg>    2.00000000000    6.33074029186    2.11024676395   -4.26789528527
|756> NewECP
|757> N_core 0
|758> lmax f
|759> s 1
|760> 1      1.732000000   14.676000000 2
|761> p 1
|762> 1      1.115000000    5.175700000 2
|763> d 1
|764> 1      1.203000000   -1.816000000 2
|765> f 1
|766> 1      1.000000000    0.000000000 2
|767> end
|768> Mg>    2.00000000000    6.33074029186   -2.11024676395   -4.26789528527
|769> NewECP
|770> N_core 0
|771> lmax f
|772> s 1
|773> 1      1.732000000   14.676000000 2
|774> p 1
|775> 1      1.115000000    5.175700000 2
|776> d 1
|777> 1      1.203000000   -1.816000000 2
|778> f 1
|779> 1      1.000000000    0.000000000 2
|780> end
|781> Mg>    2.00000000000    2.11024676395   -6.33074029186   -4.26789528527
|782> NewECP
|783> N_core 0
|784> lmax f
|785> s 1
|786> 1      1.732000000   14.676000000 2
|787> p 1
|788> 1      1.115000000    5.175700000 2
|789> d 1
|790> 1      1.203000000   -1.816000000 2
|791> f 1
|792> 1      1.000000000    0.000000000 2
|793> end
|794> Mg>    2.00000000000   -2.11024676395   -6.33074029186   -4.26789528527
|795> NewECP
|796> N_core 0
|797> lmax f
|798> s 1
|799> 1      1.732000000   14.676000000 2
|800> p 1
|801> 1      1.115000000    5.175700000 2
|802> d 1
|803> 1      1.203000000   -1.816000000 2
|804> f 1
|805> 1      1.000000000    0.000000000 2
|806> end
|807> Mg>    2.00000000000   -6.33074029186   -2.11024676395   -4.26789528527
|808> NewECP
|809> N_core 0
|810> lmax f
|811> s 1
|812> 1      1.732000000   14.676000000 2
|813> p 1
|814> 1      1.115000000    5.175700000 2
|815> d 1
|816> 1      1.203000000   -1.816000000 2
|817> f 1
|818> 1      1.000000000    0.000000000 2
|819> end
|820> Mg>    2.00000000000   -4.22049352791    2.11024676395   -6.37814204923
|821> NewECP
|822> N_core 0
|823> lmax f
|824> s 1
|825> 1      1.732000000   14.676000000 2
|826> p 1
|827> 1      1.115000000    5.175700000 2
|828> d 1
|829> 1      1.203000000   -1.816000000 2
|830> f 1
|831> 1      1.000000000    0.000000000 2
|832> end
|833> Mg>    2.00000000000   -2.11024676395    4.22049352791   -6.37814204923
|834> NewECP
|835> N_core 0
|836> lmax f
|837> s 1
|838> 1      1.732000000   14.676000000 2
|839> p 1
|840> 1      1.115000000    5.175700000 2
|841> d 1
|842> 1      1.203000000   -1.816000000 2
|843> f 1
|844> 1      1.000000000    0.000000000 2
|845> end
|846> Mg>    2.00000000000    2.11024676395    4.22049352791   -6.37814204923
|847> NewECP
|848> N_core 0
|849> lmax f
|850> s 1
|851> 1      1.732000000   14.676000000 2
|852> p 1
|853> 1      1.115000000    5.175700000 2
|854> d 1
|855> 1      1.203000000   -1.816000000 2
|856> f 1
|857> 1      1.000000000    0.000000000 2
|858> end
|859> Mg>    2.00000000000    4.22049352791    2.11024676395   -6.37814204923
|860> NewECP
|861> N_core 0
|862> lmax f
|863> s 1
|864> 1      1.732000000   14.676000000 2
|865> p 1
|866> 1      1.115000000    5.175700000 2
|867> d 1
|868> 1      1.203000000   -1.816000000 2
|869> f 1
|870> 1      1.000000000    0.000000000 2
|871> end
|872> Mg>    2.00000000000    4.22049352791   -2.11024676395   -6.37814204923
|873> NewECP
|874> N_core 0
|875> lmax f
|876> s 1
|877> 1      1.732000000   14.676000000 2
|878> p 1
|879> 1      1.115000000    5.175700000 2
|880> d 1
|881> 1      1.203000000   -1.816000000 2
|882> f 1
|883> 1      1.000000000    0.000000000 2
|884> end
|885> Mg>    2.00000000000    2.11024676395   -4.22049352791   -6.37814204923
|886> NewECP
|887> N_core 0
|888> lmax f
|889> s 1
|890> 1      1.732000000   14.676000000 2
|891> p 1
|892> 1      1.115000000    5.175700000 2
|893> d 1
|894> 1      1.203000000   -1.816000000 2
|895> f 1
|896> 1      1.000000000    0.000000000 2
|897> end
|898> Mg>    2.00000000000   -2.11024676395   -4.22049352791   -6.37814204923
|899> NewECP
|900> N_core 0
|901> lmax f
|902> s 1
|903> 1      1.732000000   14.676000000 2
|904> p 1
|905> 1      1.115000000    5.175700000 2
|906> d 1
|907> 1      1.203000000   -1.816000000 2
|908> f 1
|909> 1      1.000000000    0.000000000 2
|910> end
|911> Mg>    2.00000000000   -4.22049352791   -2.11024676395   -6.37814204923
|912> NewECP
|913> N_core 0
|914> lmax f
|915> s 1
|916> 1      1.732000000   14.676000000 2
|917> p 1
|918> 1      1.115000000    5.175700000 2
|919> d 1
|920> 1      1.203000000   -1.816000000 2
|921> f 1
|922> 1      1.000000000    0.000000000 2
|923> end
|924> Mg>    2.00000000000   -8.44098705582    0.00000000000    0.00000000000
|925> NewECP
|926> N_core 0
|927> lmax f
|928> s 1
|929> 1      1.732000000   14.676000000 2
|930> p 1
|931> 1      1.115000000    5.175700000 2
|932> d 1
|933> 1      1.203000000   -1.816000000 2
|934> f 1
|935> 1      1.000000000    0.000000000 2
|936> end
|937> Mg>    2.00000000000    0.00000000000    8.44098705582    0.00000000000
|938> NewECP
|939> N_core 0
|940> lmax f
|941> s 1
|942> 1      1.732000000   14.676000000 2
|943> p 1
|944> 1      1.115000000    5.175700000 2
|945> d 1
|946> 1      1.203000000   -1.816000000 2
|947> f 1
|948> 1      1.000000000    0.000000000 2
|949> end
|950> Mg>    2.00000000000    8.44098705582    0.00000000000    0.00000000000
|951> NewECP
|952> N_core 0
|953> lmax f
|954> s 1
|955> 1      1.732000000   14.676000000 2
|956> p 1
|957> 1      1.115000000    5.175700000 2
|958> d 1
|959> 1      1.203000000   -1.816000000 2
|960> f 1
|961> 1      1.000000000    0.000000000 2
|962> end
|963> Mg>    2.00000000000    0.00000000000   -8.44098705582    0.00000000000
|964> NewECP
|965> N_core 0
|966> lmax f
|967> s 1
|968> 1      1.732000000   14.676000000 2
|969> p 1
|970> 1      1.115000000    5.175700000 2
|971> d 1
|972> 1      1.203000000   -1.816000000 2
|973> f 1
|974> 1      1.000000000    0.000000000 2
|975> end
|976> Mg>    2.00000000000   -6.32954443328    6.32954443328   -0.04367284424
|977> NewECP
|978> N_core 0
|979> lmax f
|980> s 1
|981> 1      1.732000000   14.676000000 2
|982> p 1
|983> 1      1.115000000    5.175700000 2
|984> d 1
|985> 1      1.203000000   -1.816000000 2
|986> f 1
|987> 1      1.000000000    0.000000000 2
|988> end
|989> Mg>    2.00000000000    6.32954443328    6.32954443328   -0.04367284424
|990> NewECP
|991> N_core 0
|992> lmax f
|993> s 1
|994> 1      1.732000000   14.676000000 2
|995> p 1
|996> 1      1.115000000    5.175700000 2
|997> d 1
|998> 1      1.203000000   -1.816000000 2
|999> f 1
|1000> 1      1.000000000    0.000000000 2
|1001> end
|1002> Mg>    2.00000000000    6.32954443328   -6.32954443328   -0.04367284424
|1003> NewECP
|1004> N_core 0
|1005> lmax f
|1006> s 1
|1007> 1      1.732000000   14.676000000 2
|1008> p 1
|1009> 1      1.115000000    5.175700000 2
|1010> d 1
|1011> 1      1.203000000   -1.816000000 2
|1012> f 1
|1013> 1      1.000000000    0.000000000 2
|1014> end
|1015> Mg>    2.00000000000   -6.32954443328   -6.32954443328   -0.04367284424
|1016> NewECP
|1017> N_core 0
|1018> lmax f
|1019> s 1
|1020> 1      1.732000000   14.676000000 2
|1021> p 1
|1022> 1      1.115000000    5.175700000 2
|1023> d 1
|1024> 1      1.203000000   -1.816000000 2
|1025> f 1
|1026> 1      1.000000000    0.000000000 2
|1027> end
|1028> Mg>    2.00000000000   -8.44098705582    2.10705287155   -2.14155206950
|1029> NewECP
|1030> N_core 0
|1031> lmax f
|1032> s 1
|1033> 1      1.732000000   14.676000000 2
|1034> p 1
|1035> 1      1.115000000    5.175700000 2
|1036> d 1
|1037> 1      1.203000000   -1.816000000 2
|1038> f 1
|1039> 1      1.000000000    0.000000000 2
|1040> end
|1041> Mg>    2.00000000000   -2.10705287155    8.44098705582   -2.14155206950
|1042> NewECP
|1043> N_core 0
|1044> lmax f
|1045> s 1
|1046> 1      1.732000000   14.676000000 2
|1047> p 1
|1048> 1      1.115000000    5.175700000 2
|1049> d 1
|1050> 1      1.203000000   -1.816000000 2
|1051> f 1
|1052> 1      1.000000000    0.000000000 2
|1053> end
|1054> Mg>    2.00000000000    2.10705287155    8.44098705582   -2.14155206950
|1055> NewECP
|1056> N_core 0
|1057> lmax f
|1058> s 1
|1059> 1      1.732000000   14.676000000 2
|1060> p 1
|1061> 1      1.115000000    5.175700000 2
|1062> d 1
|1063> 1      1.203000000   -1.816000000 2
|1064> f 1
|1065> 1      1.000000000    0.000000000 2
|1066> end
|1067> Mg>    2.00000000000    8.44098705582    2.10705287155   -2.14155206950
|1068> NewECP
|1069> N_core 0
|1070> lmax f
|1071> s 1
|1072> 1      1.732000000   14.676000000 2
|1073> p 1
|1074> 1      1.115000000    5.175700000 2
|1075> d 1
|1076> 1      1.203000000   -1.816000000 2
|1077> f 1
|1078> 1      1.000000000    0.000000000 2
|1079> end
|1080> Mg>    2.00000000000    8.44098705582   -2.10705287155   -2.14155206950
|1081> NewECP
|1082> N_core 0
|1083> lmax f
|1084> s 1
|1085> 1      1.732000000   14.676000000 2
|1086> p 1
|1087> 1      1.115000000    5.175700000 2
|1088> d 1
|1089> 1      1.203000000   -1.816000000 2
|1090> f 1
|1091> 1      1.000000000    0.000000000 2
|1092> end
|1093> Mg>    2.00000000000    2.10705287155   -8.44098705582   -2.14155206950
|1094> NewECP
|1095> N_core 0
|1096> lmax f
|1097> s 1
|1098> 1      1.732000000   14.676000000 2
|1099> p 1
|1100> 1      1.115000000    5.175700000 2
|1101> d 1
|1102> 1      1.203000000   -1.816000000 2
|1103> f 1
|1104> 1      1.000000000    0.000000000 2
|1105> end
|1106> Mg>    2.00000000000   -2.10705287155   -8.44098705582   -2.14155206950
|1107> NewECP
|1108> N_core 0
|1109> lmax f
|1110> s 1
|1111> 1      1.732000000   14.676000000 2
|1112> p 1
|1113> 1      1.115000000    5.175700000 2
|1114> d 1
|1115> 1      1.203000000   -1.816000000 2
|1116> f 1
|1117> 1      1.000000000    0.000000000 2
|1118> end
|1119> Mg>    2.00000000000   -8.44098705582   -2.10705287155   -2.14155206950
|1120> NewECP
|1121> N_core 0
|1122> lmax f
|1123> s 1
|1124> 1      1.732000000   14.676000000 2
|1125> p 1
|1126> 1      1.115000000    5.175700000 2
|1127> d 1
|1128> 1      1.203000000   -1.816000000 2
|1129> f 1
|1130> 1      1.000000000    0.000000000 2
|1131> end
|1132> Mg>    2.00000000000   -6.33074029186    0.00000000000   -6.37814204923
|1133> NewECP
|1134> N_core 0
|1135> lmax f
|1136> s 1
|1137> 1      1.732000000   14.676000000 2
|1138> p 1
|1139> 1      1.115000000    5.175700000 2
|1140> d 1
|1141> 1      1.203000000   -1.816000000 2
|1142> f 1
|1143> 1      1.000000000    0.000000000 2
|1144> end
|1145> Mg>    2.00000000000    0.00000000000    6.33074029186   -6.37814204923
|1146> NewECP
|1147> N_core 0
|1148> lmax f
|1149> s 1
|1150> 1      1.732000000   14.676000000 2
|1151> p 1
|1152> 1      1.115000000    5.175700000 2
|1153> d 1
|1154> 1      1.203000000   -1.816000000 2
|1155> f 1
|1156> 1      1.000000000    0.000000000 2
|1157> end
|1158> Mg>    2.00000000000    6.33074029186    0.00000000000   -6.37814204923
|1159> NewECP
|1160> N_core 0
|1161> lmax f
|1162> s 1
|1163> 1      1.732000000   14.676000000 2
|1164> p 1
|1165> 1      1.115000000    5.175700000 2
|1166> d 1
|1167> 1      1.203000000   -1.816000000 2
|1168> f 1
|1169> 1      1.000000000    0.000000000 2
|1170> end
|1171> Mg>    2.00000000000    0.00000000000   -6.33074029186   -6.37814204923
|1172> NewECP
|1173> N_core 0
|1174> lmax f
|1175> s 1
|1176> 1      1.732000000   14.676000000 2
|1177> p 1
|1178> 1      1.115000000    5.175700000 2
|1179> d 1
|1180> 1      1.203000000   -1.816000000 2
|1181> f 1
|1182> 1      1.000000000    0.000000000 2
|1183> end
|1184> Mg>    2.00000000000   -8.44098705582    4.22049352791   -0.04269731856
|1185> NewECP
|1186> N_core 0
|1187> lmax f
|1188> s 1
|1189> 1      1.732000000   14.676000000 2
|1190> p 1
|1191> 1      1.115000000    5.175700000 2
|1192> d 1
|1193> 1      1.203000000   -1.816000000 2
|1194> f 1
|1195> 1      1.000000000    0.000000000 2
|1196> end
|1197> Mg>    2.00000000000   -4.22049352791    8.44098705582   -0.04269731856
|1198> NewECP
|1199> N_core 0
|1200> lmax f
|1201> s 1
|1202> 1      1.732000000   14.676000000 2
|1203> p 1
|1204> 1      1.115000000    5.175700000 2
|1205> d 1
|1206> 1      1.203000000   -1.816000000 2
|1207> f 1
|1208> 1      1.000000000    0.000000000 2
|1209> end
|1210> Mg>    2.00000000000    4.22049352791    8.44098705582   -0.04269731856
|1211> NewECP
|1212> N_core 0
|1213> lmax f
|1214> s 1
|1215> 1      1.732000000   14.676000000 2
|1216> p 1
|1217> 1      1.115000000    5.175700000 2
|1218> d 1
|1219> 1      1.203000000   -1.816000000 2
|1220> f 1
|1221> 1      1.000000000    0.000000000 2
|1222> end
|1223> Mg>    2.00000000000    8.44098705582    4.22049352791   -0.04269731856
|1224> NewECP
|1225> N_core 0
|1226> lmax f
|1227> s 1
|1228> 1      1.732000000   14.676000000 2
|1229> p 1
|1230> 1      1.115000000    5.175700000 2
|1231> d 1
|1232> 1      1.203000000   -1.816000000 2
|1233> f 1
|1234> 1      1.000000000    0.000000000 2
|1235> end
|1236> Mg>    2.00000000000    8.44098705582   -4.22049352791   -0.04269731856
|1237> NewECP
|1238> N_core 0
|1239> lmax f
|1240> s 1
|1241> 1      1.732000000   14.676000000 2
|1242> p 1
|1243> 1      1.115000000    5.175700000 2
|1244> d 1
|1245> 1      1.203000000   -1.816000000 2
|1246> f 1
|1247> 1      1.000000000    0.000000000 2
|1248> end
|1249> Mg>    2.00000000000    4.22049352791   -8.44098705582   -0.04269731856
|1250> NewECP
|1251> N_core 0
|1252> lmax f
|1253> s 1
|1254> 1      1.732000000   14.676000000 2
|1255> p 1
|1256> 1      1.115000000    5.175700000 2
|1257> d 1
|1258> 1      1.203000000   -1.816000000 2
|1259> f 1
|1260> 1      1.000000000    0.000000000 2
|1261> end
|1262> Mg>    2.00000000000   -4.22049352791   -8.44098705582   -0.04269731856
|1263> NewECP
|1264> N_core 0
|1265> lmax f
|1266> s 1
|1267> 1      1.732000000   14.676000000 2
|1268> p 1
|1269> 1      1.115000000    5.175700000 2
|1270> d 1
|1271> 1      1.203000000   -1.816000000 2
|1272> f 1
|1273> 1      1.000000000    0.000000000 2
|1274> end
|1275> Mg>    2.00000000000   -8.44098705582   -4.22049352791   -0.04269731856
|1276> NewECP
|1277> N_core 0
|1278> lmax f
|1279> s 1
|1280> 1      1.732000000   14.676000000 2
|1281> p 1
|1282> 1      1.115000000    5.175700000 2
|1283> d 1
|1284> 1      1.203000000   -1.816000000 2
|1285> f 1
|1286> 1      1.000000000    0.000000000 2
|1287> end
|1288> Mg>    2.00000000000   -8.44098705582    0.00000000000   -4.26789528527
|1289> NewECP
|1290> N_core 0
|1291> lmax f
|1292> s 1
|1293> 1      1.732000000   14.676000000 2
|1294> p 1
|1295> 1      1.115000000    5.175700000 2
|1296> d 1
|1297> 1      1.203000000   -1.816000000 2
|1298> f 1
|1299> 1      1.000000000    0.000000000 2
|1300> end
|1301> Mg>    2.00000000000    0.00000000000    8.44098705582   -4.26789528527
|1302> NewECP
|1303> N_core 0
|1304> lmax f
|1305> s 1
|1306> 1      1.732000000   14.676000000 2
|1307> p 1
|1308> 1      1.115000000    5.175700000 2
|1309> d 1
|1310> 1      1.203000000   -1.816000000 2
|1311> f 1
|1312> 1      1.000000000    0.000000000 2
|1313> end
|1314> Mg>    2.00000000000    8.44098705582    0.00000000000   -4.26789528527
|1315> NewECP
|1316> N_core 0
|1317> lmax f
|1318> s 1
|1319> 1      1.732000000   14.676000000 2
|1320> p 1
|1321> 1      1.115000000    5.175700000 2
|1322> d 1
|1323> 1      1.203000000   -1.816000000 2
|1324> f 1
|1325> 1      1.000000000    0.000000000 2
|1326> end
|1327> Mg>    2.00000000000    0.00000000000   -8.44098705582   -4.26789528527
|1328> NewECP
|1329> N_core 0
|1330> lmax f
|1331> s 1
|1332> 1      1.732000000   14.676000000 2
|1333> p 1
|1334> 1      1.115000000    5.175700000 2
|1335> d 1
|1336> 1      1.203000000   -1.816000000 2
|1337> f 1
|1338> 1      1.000000000    0.000000000 2
|1339> end
|1340> Mg>    2.00000000000  -10.55242967836    2.11144262254   -0.04367284424
|1341> NewECP
|1342> N_core 0
|1343> lmax f
|1344> s 1
|1345> 1      1.732000000   14.676000000 2
|1346> p 1
|1347> 1      1.115000000    5.175700000 2
|1348> d 1
|1349> 1      1.203000000   -1.816000000 2
|1350> f 1
|1351> 1      1.000000000    0.000000000 2
|1352> end
|1353> Mg>    2.00000000000   -2.11144262254   10.55242967836   -0.04367284424
|1354> NewECP
|1355> N_core 0
|1356> lmax f
|1357> s 1
|1358> 1      1.732000000   14.676000000 2
|1359> p 1
|1360> 1      1.115000000    5.175700000 2
|1361> d 1
|1362> 1      1.203000000   -1.816000000 2
|1363> f 1
|1364> 1      1.000000000    0.000000000 2
|1365> end
|1366> Mg>    2.00000000000    2.11144262254   10.55242967836   -0.04367284424
|1367> NewECP
|1368> N_core 0
|1369> lmax f
|1370> s 1
|1371> 1      1.732000000   14.676000000 2
|1372> p 1
|1373> 1      1.115000000    5.175700000 2
|1374> d 1
|1375> 1      1.203000000   -1.816000000 2
|1376> f 1
|1377> 1      1.000000000    0.000000000 2
|1378> end
|1379> Mg>    2.00000000000   10.55242967836    2.11144262254   -0.04367284424
|1380> NewECP
|1381> N_core 0
|1382> lmax f
|1383> s 1
|1384> 1      1.732000000   14.676000000 2
|1385> p 1
|1386> 1      1.115000000    5.175700000 2
|1387> d 1
|1388> 1      1.203000000   -1.816000000 2
|1389> f 1
|1390> 1      1.000000000    0.000000000 2
|1391> end
|1392> Mg>    2.00000000000   10.55242967836   -2.11144262254   -0.04367284424
|1393> NewECP
|1394> N_core 0
|1395> lmax f
|1396> s 1
|1397> 1      1.732000000   14.676000000 2
|1398> p 1
|1399> 1      1.115000000    5.175700000 2
|1400> d 1
|1401> 1      1.203000000   -1.816000000 2
|1402> f 1
|1403> 1      1.000000000    0.000000000 2
|1404> end
|1405> Mg>    2.00000000000    2.11144262254  -10.55242967836   -0.04367284424
|1406> NewECP
|1407> N_core 0
|1408> lmax f
|1409> s 1
|1410> 1      1.732000000   14.676000000 2
|1411> p 1
|1412> 1      1.115000000    5.175700000 2
|1413> d 1
|1414> 1      1.203000000   -1.816000000 2
|1415> f 1
|1416> 1      1.000000000    0.000000000 2
|1417> end
|1418> Mg>    2.00000000000   -2.11144262254  -10.55242967836   -0.04367284424
|1419> NewECP
|1420> N_core 0
|1421> lmax f
|1422> s 1
|1423> 1      1.732000000   14.676000000 2
|1424> p 1
|1425> 1      1.115000000    5.175700000 2
|1426> d 1
|1427> 1      1.203000000   -1.816000000 2
|1428> f 1
|1429> 1      1.000000000    0.000000000 2
|1430> end
|1431> Mg>    2.00000000000  -10.55242967836   -2.11144262254   -0.04367284424
|1432> NewECP
|1433> N_core 0
|1434> lmax f
|1435> s 1
|1436> 1      1.732000000   14.676000000 2
|1437> p 1
|1438> 1      1.115000000    5.175700000 2
|1439> d 1
|1440> 1      1.203000000   -1.816000000 2
|1441> f 1
|1442> 1      1.000000000    0.000000000 2
|1443> end
|1444> Mg>    2.00000000000  -10.54803992736    0.00000000000   -2.14155206950
|1445> NewECP
|1446> N_core 0
|1447> lmax f
|1448> s 1
|1449> 1      1.732000000   14.676000000 2
|1450> p 1
|1451> 1      1.115000000    5.175700000 2
|1452> d 1
|1453> 1      1.203000000   -1.816000000 2
|1454> f 1
|1455> 1      1.000000000    0.000000000 2
|1456> end
|1457> Mg>    2.00000000000    0.00000000000   10.54803992736   -2.14155206950
|1458> NewECP
|1459> N_core 0
|1460> lmax f
|1461> s 1
|1462> 1      1.732000000   14.676000000 2
|1463> p 1
|1464> 1      1.115000000    5.175700000 2
|1465> d 1
|1466> 1      1.203000000   -1.816000000 2
|1467> f 1
|1468> 1      1.000000000    0.000000000 2
|1469> end
|1470> Mg>    2.00000000000   10.54803992736    0.00000000000   -2.14155206950
|1471> NewECP
|1472> N_core 0
|1473> lmax f
|1474> s 1
|1475> 1      1.732000000   14.676000000 2
|1476> p 1
|1477> 1      1.115000000    5.175700000 2
|1478> d 1
|1479> 1      1.203000000   -1.816000000 2
|1480> f 1
|1481> 1      1.000000000    0.000000000 2
|1482> end
|1483> Mg>    2.00000000000    0.00000000000  -10.54803992736   -2.14155206950
|1484> NewECP
|1485> N_core 0
|1486> lmax f
|1487> s 1
|1488> 1      1.732000000   14.676000000 2
|1489> p 1
|1490> 1      1.115000000    5.175700000 2
|1491> d 1
|1492> 1      1.203000000   -1.816000000 2
|1493> f 1
|1494> 1      1.000000000    0.000000000 2
|1495> end
|1496> end
|1497> end
|1498>
|1499>
|1500>                          ****END OF INPUT****
================================================================================

                       ****************************
                       * Single Point Calculation *
                       ****************************

---------------------------------
CARTESIAN COORDINATES (ANGSTROEM)
---------------------------------
  C      0.000000    0.000000    2.441022
  O      0.000000    0.000000    3.587842
  Mg     0.000000    0.000000    0.000000
  O     -2.120184    0.000000    0.005672
  O      0.000000    2.120184    0.005672
  O      2.120184    0.000000    0.005672
  O      0.000000   -2.120184    0.005672
  O      0.000000    0.000000   -2.141300
  Mg    -2.111443    2.111443   -0.043673
  Mg     2.111443    2.111443   -0.043673
  Mg     2.111443   -2.111443   -0.043673
  Mg    -2.111443   -2.111443   -0.043673
  Mg    -2.107053    0.000000   -2.141552
  Mg     0.000000    2.107053   -2.141552
  Mg     2.107053    0.000000   -2.141552
  Mg     0.000000   -2.107053   -2.141552
  O     -2.110705    2.110705   -2.149240
  O      2.110705    2.110705   -2.149240
  O      2.110705   -2.110705   -2.149240
  O     -2.110705   -2.110705   -2.149240
  Mg    -4.220494    0.000000   -0.042697
  Mg     0.000000    4.220494   -0.042697
  Mg     4.220494    0.000000   -0.042697
  Mg     0.000000   -4.220494   -0.042697
  O     -4.220494    2.112091    0.007728
  O     -2.112091    4.220494    0.007728
  O      2.112091    4.220494    0.007728
  O      4.220494    2.112091    0.007728
  O      4.220494   -2.112091    0.007728
  O      2.112091   -4.220494    0.007728
  O     -2.112091   -4.220494    0.007728
  O     -4.220494   -2.112091    0.007728
  O     -4.220494    0.000000   -2.151297
  O      0.000000    4.220494   -2.151297
  O      4.220494    0.000000   -2.151297
  O      0.000000   -4.220494   -2.151297
  O     -2.110247    0.000000   -4.267895
  O      0.000000    2.110247   -4.267895
  O      2.110247    0.000000   -4.267895
  O      0.000000   -2.110247   -4.267895
  O     -6.320803    0.000000    0.005672
  O      0.000000    6.320803    0.005672
  O      6.320803    0.000000    0.005672
  O      0.000000   -6.320803    0.005672
  Mg>    0.000000    0.000000   -4.267895
  Mg>   -4.220494    2.109734   -2.144459
  Mg>   -2.109734    4.220494   -2.144459
  Mg>    2.109734    4.220494   -2.144459
  Mg>    4.220494    2.109734   -2.144459
  Mg>    4.220494   -2.109734   -2.144459
  Mg>    2.109734   -4.220494   -2.144459
  Mg>   -2.109734   -4.220494   -2.144459
  Mg>   -4.220494   -2.109734   -2.144459
  Mg>   -2.110247    2.110247   -4.267895
  Mg>    2.110247    2.110247   -4.267895
  Mg>    2.110247   -2.110247   -4.267895
  Mg>   -2.110247   -2.110247   -4.267895
  Mg>   -4.220494    4.220494   -0.039924
  Mg>    4.220494    4.220494   -0.039924
  Mg>    4.220494   -4.220494   -0.039924
  Mg>   -4.220494   -4.220494   -0.039924
  Mg>   -4.220494    0.000000   -4.267895
  Mg>    0.000000    4.220494   -4.267895
  Mg>    4.220494    0.000000   -4.267895
  Mg>    0.000000   -4.220494   -4.267895
  Mg>   -6.329544    2.111443   -0.043673
  Mg>   -2.111443    6.329544   -0.043673
  Mg>    2.111443    6.329544   -0.043673
  Mg>    6.329544    2.111443   -0.043673
  Mg>    6.329544   -2.111443   -0.043673
  Mg>    2.111443   -6.329544   -0.043673
  Mg>   -2.111443   -6.329544   -0.043673
  Mg>   -6.329544   -2.111443   -0.043673
  Mg>   -6.333934    0.000000   -2.141552
  Mg>    0.000000    6.333934   -2.141552
  Mg>    6.333934    0.000000   -2.141552
  Mg>    0.000000   -6.333934   -2.141552
  Mg>   -2.110247    0.000000   -6.378142
  Mg>    0.000000    2.110247   -6.378142
  Mg>    2.110247    0.000000   -6.378142
  Mg>    0.000000   -2.110247   -6.378142
  Mg>   -4.220494    4.220494   -4.267895
  Mg>    4.220494    4.220494   -4.267895
  Mg>    4.220494   -4.220494   -4.267895
  Mg>   -4.220494   -4.220494   -4.267895
  Mg>   -6.331253    4.220494   -2.144459
  Mg>   -4.220494    6.331253   -2.144459
  Mg>    4.220494    6.331253   -2.144459
  Mg>    6.331253    4.220494   -2.144459
  Mg>    6.331253   -4.220494   -2.144459
  Mg>    4.220494   -6.331253   -2.144459
  Mg>   -4.220494   -6.331253   -2.144459
  Mg>   -6.331253   -4.220494   -2.144459
  Mg>   -6.330740    2.110247   -4.267895
  Mg>   -2.110247    6.330740   -4.267895
  Mg>    2.110247    6.330740   -4.267895
  Mg>    6.330740    2.110247   -4.267895
  Mg>    6.330740   -2.110247   -4.267895
  Mg>    2.110247   -6.330740   -4.267895
  Mg>   -2.110247   -6.330740   -4.267895
  Mg>   -6.330740   -2.110247   -4.267895
  Mg>   -4.220494    2.110247   -6.378142
  Mg>   -2.110247    4.220494   -6.378142
  Mg>    2.110247    4.220494   -6.378142
  Mg>    4.220494    2.110247   -6.378142
  Mg>    4.220494   -2.110247   -6.378142
  Mg>    2.110247   -4.220494   -6.378142
  Mg>   -2.110247   -4.220494   -6.378142
  Mg>   -4.220494   -2.110247   -6.378142
  Mg>   -8.440987    0.000000    0.000000
  Mg>    0.000000    8.440987    0.000000
  Mg>    8.440987    0.000000    0.000000
  Mg>    0.000000   -8.440987    0.000000
  Mg>   -6.329544    6.329544   -0.043673
  Mg>    6.329544    6.329544   -0.043673
  Mg>    6.329544   -6.329544   -0.043673
  Mg>   -6.329544   -6.329544   -0.043673
  Mg>   -8.440987    2.107053   -2.141552
  Mg>   -2.107053    8.440987   -2.141552
  Mg>    2.107053    8.440987   -2.141552
  Mg>    8.440987    2.107053   -2.141552
  Mg>    8.440987   -2.107053   -2.141552
  Mg>    2.107053   -8.440987   -2.141552
  Mg>   -2.107053   -8.440987   -2.141552
  Mg>   -8.440987   -2.107053   -2.141552
  Mg>   -6.330740    0.000000   -6.378142
  Mg>    0.000000    6.330740   -6.378142
  Mg>    6.330740    0.000000   -6.378142
  Mg>    0.000000   -6.330740   -6.378142
  Mg>   -8.440987    4.220494   -0.042697
  Mg>   -4.220494    8.440987   -0.042697
  Mg>    4.220494    8.440987   -0.042697
  Mg>    8.440987    4.220494   -0.042697
  Mg>    8.440987   -4.220494   -0.042697
  Mg>    4.220494   -8.440987   -0.042697
  Mg>   -4.220494   -8.440987   -0.042697
  Mg>   -8.440987   -4.220494   -0.042697
  Mg>   -8.440987    0.000000   -4.267895
  Mg>    0.000000    8.440987   -4.267895
  Mg>    8.440987    0.000000   -4.267895
  Mg>    0.000000   -8.440987   -4.267895
  Mg>  -10.552430    2.111443   -0.043673
  Mg>   -2.111443   10.552430   -0.043673
  Mg>    2.111443   10.552430   -0.043673
  Mg>   10.552430    2.111443   -0.043673
  Mg>   10.552430   -2.111443   -0.043673
  Mg>    2.111443  -10.552430   -0.043673
  Mg>   -2.111443  -10.552430   -0.043673
  Mg>  -10.552430   -2.111443   -0.043673
  Mg>  -10.548040    0.000000   -2.141552
  Mg>    0.000000   10.548040   -2.141552
  Mg>   10.548040    0.000000   -2.141552
  Mg>    0.000000  -10.548040   -2.141552

----------------------------
CARTESIAN COORDINATES (A.U.)
----------------------------
  NO LB      ZA    FRAG     MASS         X           Y           Z
   0 C     0.0000    0     0.000    0.000000    0.000000    4.612864
   1 O     0.0000    0     0.000    0.000000    0.000000    6.780039
   2 Mg   12.0000    0    24.305    0.000000    0.000000    0.000000
   3 O     8.0000    0    15.999   -4.006568    0.000000    0.010719
   4 O     8.0000    0    15.999    0.000000    4.006568    0.010719
   5 O     8.0000    0    15.999    4.006568    0.000000    0.010719
   6 O     8.0000    0    15.999    0.000000   -4.006568    0.010719
   7 O     8.0000    0    15.999    0.000000    0.000000   -4.046470
   8 Mg   12.0000    0    24.305   -3.990048    3.990048   -0.082530
   9 Mg   12.0000    0    24.305    3.990048    3.990048   -0.082530
  10 Mg   12.0000    0    24.305    3.990048   -3.990048   -0.082530
  11 Mg   12.0000    0    24.305   -3.990048   -3.990048   -0.082530
  12 Mg   12.0000    0    24.305   -3.981753    0.000000   -4.046947
  13 Mg   12.0000    0    24.305    0.000000    3.981753   -4.046947
  14 Mg   12.0000    0    24.305    3.981753    0.000000   -4.046947
  15 Mg   12.0000    0    24.305    0.000000   -3.981753   -4.046947
  16 O     8.0000    0    15.999   -3.988653    3.988653   -4.061475
  17 O     8.0000    0    15.999    3.988653    3.988653   -4.061475
  18 O     8.0000    0    15.999    3.988653   -3.988653   -4.061475
  19 O     8.0000    0    15.999   -3.988653   -3.988653   -4.061475
  20 Mg   12.0000    0    24.305   -7.975577    0.000000   -0.080686
  21 Mg   12.0000    0    24.305    0.000000    7.975577   -0.080686
  22 Mg   12.0000    0    24.305    7.975577    0.000000   -0.080686
  23 Mg   12.0000    0    24.305    0.000000   -7.975577   -0.080686
  24 O     8.0000    0    15.999   -7.975577    3.991274    0.014604
  25 O     8.0000    0    15.999   -3.991274    7.975577    0.014604
  26 O     8.0000    0    15.999    3.991274    7.975577    0.014604
  27 O     8.0000    0    15.999    7.975577    3.991274    0.014604
  28 O     8.0000    0    15.999    7.975577   -3.991274    0.014604
  29 O     8.0000    0    15.999    3.991274   -7.975577    0.014604
  30 O     8.0000    0    15.999   -3.991274   -7.975577    0.014604
  31 O     8.0000    0    15.999   -7.975577   -3.991274    0.014604
  32 O     8.0000    0    15.999   -7.975577    0.000000   -4.065363
  33 O     8.0000    0    15.999    0.000000    7.975577   -4.065363
  34 O     8.0000    0    15.999    7.975577    0.000000   -4.065363
  35 O     8.0000    0    15.999    0.000000   -7.975577   -4.065363
  36 O     8.0000    0    15.999   -3.987788    0.000000   -8.065153
  37 O     8.0000    0    15.999    0.000000    3.987788   -8.065153
  38 O     8.0000    0    15.999    3.987788    0.000000   -8.065153
  39 O     8.0000    0    15.999    0.000000   -3.987788   -8.065153
  40 O     8.0000    0    15.999  -11.944586    0.000000    0.010719
  41 O     8.0000    0    15.999    0.000000   11.944586    0.010719
  42 O     8.0000    0    15.999   11.944586    0.000000    0.010719
  43 O     8.0000    0    15.999    0.000000  -11.944586    0.010719
  44 Mg>   2.0000    0     0.000    0.000000    0.000000   -8.065153
  45 Mg>   2.0000    0     0.000   -7.975577    3.986820   -4.052440
  46 Mg>   2.0000    0     0.000   -3.986820    7.975577   -4.052440
  47 Mg>   2.0000    0     0.000    3.986820    7.975577   -4.052440
  48 Mg>   2.0000    0     0.000    7.975577    3.986820   -4.052440
  49 Mg>   2.0000    0     0.000    7.975577   -3.986820   -4.052440
  50 Mg>   2.0000    0     0.000    3.986820   -7.975577   -4.052440
  51 Mg>   2.0000    0     0.000   -3.986820   -7.975577   -4.052440
  52 Mg>   2.0000    0     0.000   -7.975577   -3.986820   -4.052440
  53 Mg>   2.0000    0     0.000   -3.987788    3.987788   -8.065153
  54 Mg>   2.0000    0     0.000    3.987788    3.987788   -8.065153
  55 Mg>   2.0000    0     0.000    3.987788   -3.987788   -8.065153
  56 Mg>   2.0000    0     0.000   -3.987788   -3.987788   -8.065153
  57 Mg>   2.0000    0     0.000   -7.975577    7.975577   -0.075445
  58 Mg>   2.0000    0     0.000    7.975577    7.975577   -0.075445
  59 Mg>   2.0000    0     0.000    7.975577   -7.975577   -0.075445
  60 Mg>   2.0000    0     0.000   -7.975577   -7.975577   -0.075445
  61 Mg>   2.0000    0     0.000   -7.975577    0.000000   -8.065153
  62 Mg>   2.0000    0     0.000    0.000000    7.975577   -8.065153
  63 Mg>   2.0000    0     0.000    7.975577    0.000000   -8.065153
  64 Mg>   2.0000    0     0.000    0.000000   -7.975577   -8.065153
  65 Mg>   2.0000    0     0.000  -11.961106    3.990048   -0.082530
  66 Mg>   2.0000    0     0.000   -3.990048   11.961106   -0.082530
  67 Mg>   2.0000    0     0.000    3.990048   11.961106   -0.082530
  68 Mg>   2.0000    0     0.000   11.961106    3.990048   -0.082530
  69 Mg>   2.0000    0     0.000   11.961106   -3.990048   -0.082530
  70 Mg>   2.0000    0     0.000    3.990048  -11.961106   -0.082530
  71 Mg>   2.0000    0     0.000   -3.990048  -11.961106   -0.082530
  72 Mg>   2.0000    0     0.000  -11.961106   -3.990048   -0.082530
  73 Mg>   2.0000    0     0.000  -11.969401    0.000000   -4.046947
  74 Mg>   2.0000    0     0.000    0.000000   11.969401   -4.046947
  75 Mg>   2.0000    0     0.000   11.969401    0.000000   -4.046947
  76 Mg>   2.0000    0     0.000    0.000000  -11.969401   -4.046947
  77 Mg>   2.0000    0     0.000   -3.987788    0.000000  -12.052942
  78 Mg>   2.0000    0     0.000    0.000000    3.987788  -12.052942
  79 Mg>   2.0000    0     0.000    3.987788    0.000000  -12.052942
  80 Mg>   2.0000    0     0.000    0.000000   -3.987788  -12.052942
  81 Mg>   2.0000    0     0.000   -7.975577    7.975577   -8.065153
  82 Mg>   2.0000    0     0.000    7.975577    7.975577   -8.065153
  83 Mg>   2.0000    0     0.000    7.975577   -7.975577   -8.065153
  84 Mg>   2.0000    0     0.000   -7.975577   -7.975577   -8.065153
  85 Mg>   2.0000    0     0.000  -11.964334    7.975577   -4.052440
  86 Mg>   2.0000    0     0.000   -7.975577   11.964334   -4.052440
  87 Mg>   2.0000    0     0.000    7.975577   11.964334   -4.052440
  88 Mg>   2.0000    0     0.000   11.964334    7.975577   -4.052440
  89 Mg>   2.0000    0     0.000   11.964334   -7.975577   -4.052440
  90 Mg>   2.0000    0     0.000    7.975577  -11.964334   -4.052440
  91 Mg>   2.0000    0     0.000   -7.975577  -11.964334   -4.052440
  92 Mg>   2.0000    0     0.000  -11.964334   -7.975577   -4.052440
  93 Mg>   2.0000    0     0.000  -11.963365    3.987788   -8.065153
  94 Mg>   2.0000    0     0.000   -3.987788   11.963365   -8.065153
  95 Mg>   2.0000    0     0.000    3.987788   11.963365   -8.065153
  96 Mg>   2.0000    0     0.000   11.963365    3.987788   -8.065153
  97 Mg>   2.0000    0     0.000   11.963365   -3.987788   -8.065153
  98 Mg>   2.0000    0     0.000    3.987788  -11.963365   -8.065153
  99 Mg>   2.0000    0     0.000   -3.987788  -11.963365   -8.065153
 100 Mg>   2.0000    0     0.000  -11.963365   -3.987788   -8.065153
 101 Mg>   2.0000    0     0.000   -7.975577    3.987788  -12.052942
 102 Mg>   2.0000    0     0.000   -3.987788    7.975577  -12.052942
 103 Mg>   2.0000    0     0.000    3.987788    7.975577  -12.052942
 104 Mg>   2.0000    0     0.000    7.975577    3.987788  -12.052942
 105 Mg>   2.0000    0     0.000    7.975577   -3.987788  -12.052942
 106 Mg>   2.0000    0     0.000    3.987788   -7.975577  -12.052942
 107 Mg>   2.0000    0     0.000   -3.987788   -7.975577  -12.052942
 108 Mg>   2.0000    0     0.000   -7.975577   -3.987788  -12.052942
 109 Mg>   2.0000    0     0.000  -15.951154    0.000000    0.000000
 110 Mg>   2.0000    0     0.000    0.000000   15.951154    0.000000
 111 Mg>   2.0000    0     0.000   15.951154    0.000000    0.000000
 112 Mg>   2.0000    0     0.000    0.000000  -15.951154    0.000000
 113 Mg>   2.0000    0     0.000  -11.961106   11.961106   -0.082530
 114 Mg>   2.0000    0     0.000   11.961106   11.961106   -0.082530
 115 Mg>   2.0000    0     0.000   11.961106  -11.961106   -0.082530
 116 Mg>   2.0000    0     0.000  -11.961106  -11.961106   -0.082530
 117 Mg>   2.0000    0     0.000  -15.951154    3.981753   -4.046947
 118 Mg>   2.0000    0     0.000   -3.981753   15.951154   -4.046947
 119 Mg>   2.0000    0     0.000    3.981753   15.951154   -4.046947
 120 Mg>   2.0000    0     0.000   15.951154    3.981753   -4.046947
 121 Mg>   2.0000    0     0.000   15.951154   -3.981753   -4.046947
 122 Mg>   2.0000    0     0.000    3.981753  -15.951154   -4.046947
 123 Mg>   2.0000    0     0.000   -3.981753  -15.951154   -4.046947
 124 Mg>   2.0000    0     0.000  -15.951154   -3.981753   -4.046947
 125 Mg>   2.0000    0     0.000  -11.963365    0.000000  -12.052942
 126 Mg>   2.0000    0     0.000    0.000000   11.963365  -12.052942
 127 Mg>   2.0000    0     0.000   11.963365    0.000000  -12.052942
 128 Mg>   2.0000    0     0.000    0.000000  -11.963365  -12.052942
 129 Mg>   2.0000    0     0.000  -15.951154    7.975577   -0.080686
 130 Mg>   2.0000    0     0.000   -7.975577   15.951154   -0.080686
 131 Mg>   2.0000    0     0.000    7.975577   15.951154   -0.080686
 132 Mg>   2.0000    0     0.000   15.951154    7.975577   -0.080686
 133 Mg>   2.0000    0     0.000   15.951154   -7.975577   -0.080686
 134 Mg>   2.0000    0     0.000    7.975577  -15.951154   -0.080686
 135 Mg>   2.0000    0     0.000   -7.975577  -15.951154   -0.080686
 136 Mg>   2.0000    0     0.000  -15.951154   -7.975577   -0.080686
 137 Mg>   2.0000    0     0.000  -15.951154    0.000000   -8.065153
 138 Mg>   2.0000    0     0.000    0.000000   15.951154   -8.065153
 139 Mg>   2.0000    0     0.000   15.951154    0.000000   -8.065153
 140 Mg>   2.0000    0     0.000    0.000000  -15.951154   -8.065153
 141 Mg>   2.0000    0     0.000  -19.941202    3.990048   -0.082530
 142 Mg>   2.0000    0     0.000   -3.990048   19.941202   -0.082530
 143 Mg>   2.0000    0     0.000    3.990048   19.941202   -0.082530
 144 Mg>   2.0000    0     0.000   19.941202    3.990048   -0.082530
 145 Mg>   2.0000    0     0.000   19.941202   -3.990048   -0.082530
 146 Mg>   2.0000    0     0.000    3.990048  -19.941202   -0.082530
 147 Mg>   2.0000    0     0.000   -3.990048  -19.941202   -0.082530
 148 Mg>   2.0000    0     0.000  -19.941202   -3.990048   -0.082530
 149 Mg>   2.0000    0     0.000  -19.932907    0.000000   -4.046947
 150 Mg>   2.0000    0     0.000    0.000000   19.932907   -4.046947
 151 Mg>   2.0000    0     0.000   19.932907    0.000000   -4.046947
 152 Mg>   2.0000    0     0.000    0.000000  -19.932907   -4.046947
> coreless ECP center with (optional) point charge

--------------------------------
INTERNAL COORDINATES (ANGSTROEM)
--------------------------------
 C      0   0   0     0.000000000000     0.00000000     0.00000000
 O      1   0   0     1.146819814660     0.00000000     0.00000000
 Mg     1   2   0     2.441022358370   179.99999915     0.00000000
 O      3   1   2     2.120191843798    89.84671800     0.00000000
 O      3   1   2     2.120191843798    89.84671800     0.00000000
 O      3   1   2     2.120191843798    89.84671800     0.00000000
 O      3   1   2     2.120191843798    89.84671800     0.00000000
 O      3   1   2     2.141299661230   179.99999852     0.00000000
 Mg     4   3   1     2.112037236193    89.75927407    91.33813376
 Mg     5   3   1     2.112037236193    89.75927407    91.33813376
 Mg     6   3   1     2.112037236193    89.75927407    91.33813376
 Mg     4   3   1     2.112037236193    89.75927407   268.66186624
 Mg     8   3   4     2.107052886668    90.00686358     0.00000000
 Mg     8   3   4     2.107052886668    90.00686358    90.00000000
 Mg     8   3   4     2.107052886668    90.00686358   180.00000000
 Mg     8   3   4     2.107052886668    90.00686358   270.00000000
 O      9   4   3     2.105567311124    91.31875951    89.83212722
 O     10   5   3     2.105567311124    91.31875951    89.83212722
 O     11   6   3     2.105567311124    91.31875951    89.83212722
 O     12   4   3     2.105567311124    91.31875951   270.16787278
 Mg     4   3   1     2.100866163030   178.52744884   180.00000000
 Mg     5   3   1     2.100866163030   178.52744884   180.00000000
 Mg     6   3   1     2.100866163030   178.52744884   180.00000000
 Mg     7   3   1     2.100866163030   178.52744884   180.00000000
 O      9   4   3     2.109677271876    89.74792452   181.24291387
 O      9   4   3     2.109677271876   177.25328254   264.52840758
 O     10   5   3     2.109677271876    89.74792452   181.24291387
 O     10   5   3     2.109677271876   177.25328254   264.52840758
 O     11   6   3     2.109677271876    89.74792452   181.24291387
 O     11   6   3     2.109677271876   177.25328254   264.52840758
 O     12   4   3     2.109677271876   177.25328254    95.47159242
 O     12   4   3     2.109677271876    89.74792452   178.75708613
 O     21   4   9     2.108599876340    91.31926915    88.65612348
 O     22   5   9     2.108599876340    91.31926915   271.34387652
 O     23   6  10     2.108599876340    91.31926915   271.34387652
 O     24   7  11     2.108599876340    91.31926915   271.34387652
 O     13   8   3     2.126345614476    90.09292514   180.00000000
 O     14   8   3     2.126345614476    90.09292514   180.00000000
 O     15   8   3     2.126345614476    90.09292514   180.00000000
 O     16   8   3     2.126345614476    90.09292514   180.00000000
 O     21   4   9     2.100866163030   177.36146170   268.65612348
 O     22   5   9     2.100866163030   177.36146170    91.34387652
 O     23   6  10     2.100866163030   177.36146170    91.34387652
 O     24   7  11     2.100866163030   177.36146170    91.34387652
 Mg>   37  13   8     2.110246763950    89.91393844     0.00000000
 Mg>   33  21   4     2.109745206923    89.81429353   270.00000000
 Mg>   34  22   5     2.109745206923    89.81429353    90.00000000
 Mg>   34  22   5     2.109745206923    89.81429353   270.00000000
 Mg>   35  23   6     2.109745206923    89.81429353    90.00000000
 Mg>   35  23   6     2.109745206923    89.81429353   270.00000000
 Mg>   36  24   7     2.109745206923    89.81429353    90.00000000
 Mg>   36  24   7     2.109745206923    89.81429353   270.00000000
 Mg>   33  21   4     2.109745206923    89.81429353    90.00000000
 Mg>   37  13   8     2.110246763950    90.00000000   270.00000000
 Mg>   38  14   8     2.110246763950    90.00000000   270.00000000
 Mg>   39  15   8     2.110246763950    90.00000000   270.00000000
 Mg>   37  13   8     2.110246763950    90.00000000    90.00000000
 Mg>   25   9   4     2.108940547344    89.98607312   179.96173264
 Mg>   27  10   5     2.108940547344    89.98607312   179.96173264
 Mg>   29  11   6     2.108940547344    89.98607312   179.96173264
 Mg>   31  12  20     2.108940547344    89.98607312   271.27467433
[...]
107 Q      0.0000     2.0000     2.0000     0.0000     0.0000     0.0000
108 Q      0.0000     2.0000     2.0000     0.0000     0.0000     0.0000
109 Q      0.0000     2.0000     2.0000     0.0000     0.0000     0.0000
110 Q      0.0000     2.0000     2.0000     0.0000     0.0000     0.0000
111 Q      0.0000     2.0000     2.0000     0.0000     0.0000     0.0000
112 Q      0.0000     2.0000     2.0000     0.0000     0.0000     0.0000
113 Q      0.0000     2.0000     2.0000     0.0000     0.0000     0.0000
114 Q      0.0000     2.0000     2.0000     0.0000     0.0000     0.0000
115 Q      0.0000     2.0000     2.0000     0.0000     0.0000     0.0000
116 Q      0.0000     2.0000     2.0000     0.0000     0.0000     0.0000
117 Q      0.0000     2.0000     2.0000     0.0000     0.0000     0.0000
118 Q      0.0000     2.0000     2.0000     0.0000     0.0000     0.0000
119 Q      0.0000     2.0000     2.0000     0.0000     0.0000     0.0000
120 Q      0.0000     2.0000     2.0000     0.0000     0.0000     0.0000
121 Q      0.0000     2.0000     2.0000     0.0000     0.0000     0.0000
122 Q      0.0000     2.0000     2.0000     0.0000     0.0000     0.0000
123 Q      0.0000     2.0000     2.0000     0.0000     0.0000     0.0000
124 Q      0.0000     2.0000     2.0000     0.0000     0.0000     0.0000
125 Q      0.0000     2.0000     2.0000     0.0000     0.0000     0.0000
126 Q      0.0000     2.0000     2.0000     0.0000     0.0000     0.0000
127 Q      0.0000     2.0000     2.0000     0.0000     0.0000     0.0000
128 Q      0.0000     2.0000     2.0000     0.0000     0.0000     0.0000
129 Q      0.0000     2.0000     2.0000     0.0000     0.0000     0.0000
130 Q      0.0000     2.0000     2.0000     0.0000     0.0000     0.0000
131 Q      0.0000     2.0000     2.0000     0.0000     0.0000     0.0000
132 Q      0.0000     2.0000     2.0000     0.0000     0.0000     0.0000
133 Q      0.0000     2.0000     2.0000     0.0000     0.0000     0.0000
134 Q      0.0000     2.0000     2.0000     0.0000     0.0000     0.0000
135 Q      0.0000     2.0000     2.0000     0.0000     0.0000     0.0000
136 Q      0.0000     2.0000     2.0000     0.0000     0.0000     0.0000
137 Q      0.0000     2.0000     2.0000     0.0000     0.0000     0.0000
138 Q      0.0000     2.0000     2.0000     0.0000     0.0000     0.0000
139 Q      0.0000     2.0000     2.0000     0.0000     0.0000     0.0000
140 Q      0.0000     2.0000     2.0000     0.0000     0.0000     0.0000
141 Q      0.0000     2.0000     2.0000     0.0000     0.0000     0.0000
142 Q      0.0000     2.0000     2.0000     0.0000     0.0000     0.0000
143 Q      0.0000     2.0000     2.0000     0.0000     0.0000     0.0000
144 Q      0.0000     2.0000     2.0000     0.0000     0.0000     0.0000
145 Q      0.0000     2.0000     2.0000     0.0000     0.0000     0.0000
146 Q      0.0000     2.0000     2.0000     0.0000     0.0000     0.0000
147 Q      0.0000     2.0000     2.0000     0.0000     0.0000     0.0000
148 Q      0.0000     2.0000     2.0000     0.0000     0.0000     0.0000
149 Q      0.0000     2.0000     2.0000     0.0000     0.0000     0.0000
150 Q      0.0000     2.0000     2.0000     0.0000     0.0000     0.0000
151 Q      0.0000     2.0000     2.0000     0.0000     0.0000     0.0000
152 Q      0.0000     2.0000     2.0000     0.0000     0.0000     0.0000

  Mayer bond orders larger than 0.100000
B(  2-Mg,  3-O ) :   0.3212 B(  2-Mg,  4-O ) :   0.3210 B(  2-Mg,  5-O ) :   0.3213
B(  2-Mg,  6-O ) :   0.3211 B(  2-Mg,  7-O ) :   0.4331 B(  2-Mg, 16-O ) :  -0.1564
B(  2-Mg, 17-O ) :  -0.1563 B(  2-Mg, 18-O ) :  -0.1561 B(  2-Mg, 19-O ) :  -0.1561
B(  3-O ,  8-Mg) :   0.3064 B(  3-O , 11-Mg) :   0.3064 B(  3-O , 12-Mg) :   0.4142
B(  3-O , 13-Mg) :  -0.1579 B(  3-O , 15-Mg) :  -0.1579 B(  3-O , 20-Mg) :   0.3708
B(  4-O ,  8-Mg) :   0.3064 B(  4-O ,  9-Mg) :   0.3064 B(  4-O , 12-Mg) :  -0.1582
B(  4-O , 13-Mg) :   0.4147 B(  4-O , 14-Mg) :  -0.1581 B(  4-O , 21-Mg) :   0.3708
B(  5-O ,  9-Mg) :   0.3062 B(  5-O , 10-Mg) :   0.3066 B(  5-O , 13-Mg) :  -0.1581
B(  5-O , 14-Mg) :   0.4146 B(  5-O , 15-Mg) :  -0.1582 B(  5-O , 22-Mg) :   0.3709
B(  6-O , 10-Mg) :   0.3065 B(  6-O , 11-Mg) :   0.3067 B(  6-O , 12-Mg) :  -0.1580
B(  6-O , 14-Mg) :  -0.1582 B(  6-O , 15-Mg) :   0.4146 B(  6-O , 23-Mg) :   0.3707
B(  7-O ,  8-Mg) :  -0.1005 B(  7-O ,  9-Mg) :  -0.1005 B(  7-O , 10-Mg) :  -0.1003
B(  7-O , 11-Mg) :  -0.1004 B(  7-O , 12-Mg) :   0.3609 B(  7-O , 13-Mg) :   0.3606
B(  7-O , 14-Mg) :   0.3611 B(  7-O , 15-Mg) :   0.3609 B(  7-O , 16-O ) :  -0.1312
B(  7-O , 17-O ) :  -0.1312 B(  7-O , 18-O ) :  -0.1311 B(  7-O , 19-O ) :  -0.1312
B(  7-O , 36-O ) :   0.2157 B(  7-O , 37-O ) :   0.2161 B(  7-O , 38-O ) :   0.2160
B(  7-O , 39-O ) :   0.2159 B(  8-Mg, 16-O ) :   0.3240 B(  8-Mg, 24-O ) :   0.3983
B(  8-Mg, 25-O ) :   0.3981 B(  9-Mg, 17-O ) :   0.3242 B(  9-Mg, 26-O ) :   0.3979
B(  9-Mg, 27-O ) :   0.3981 B( 10-Mg, 18-O ) :   0.3242 B( 10-Mg, 28-O ) :   0.3980
B( 10-Mg, 29-O ) :   0.3981 B( 11-Mg, 19-O ) :   0.3240 B( 11-Mg, 30-O ) :   0.3978
B( 11-Mg, 31-O ) :   0.3980 B( 12-Mg, 13-Mg) :  -0.1976 B( 12-Mg, 15-Mg) :  -0.1978
B( 12-Mg, 16-O ) :   0.3580 B( 12-Mg, 19-O ) :   0.3576 B( 12-Mg, 32-O ) :   0.1353
B( 12-Mg, 36-O ) :  -0.2240 B( 12-Mg, 37-O ) :  -0.1350 B( 12-Mg, 38-O ) :   0.1204
B( 12-Mg, 39-O ) :  -0.1354 B( 13-Mg, 14-Mg) :  -0.1979 B( 13-Mg, 16-O ) :   0.3584
B( 13-Mg, 17-O ) :   0.3576 B( 13-Mg, 33-O ) :   0.1350 B( 13-Mg, 36-O ) :  -0.1357
B( 13-Mg, 37-O ) :  -0.2248 B( 13-Mg, 38-O ) :  -0.1354 B( 13-Mg, 39-O ) :   0.1200
B( 14-Mg, 15-Mg) :  -0.1978 B( 14-Mg, 17-O ) :   0.3579 B( 14-Mg, 18-O ) :   0.3576
B( 14-Mg, 34-O ) :   0.1349 B( 14-Mg, 36-O ) :   0.1201 B( 14-Mg, 37-O ) :  -0.1353
B( 14-Mg, 38-O ) :  -0.2247 B( 14-Mg, 39-O ) :  -0.1355 B( 15-Mg, 18-O ) :   0.3576
B( 15-Mg, 19-O ) :   0.3582 B( 15-Mg, 35-O ) :   0.1356 B( 15-Mg, 36-O ) :  -0.1357
B( 15-Mg, 37-O ) :   0.1199 B( 15-Mg, 38-O ) :  -0.1359 B( 15-Mg, 39-O ) :  -0.2252
B( 20-Mg, 24-O ) :   0.4029 B( 20-Mg, 31-O ) :   0.4030 B( 20-Mg, 32-O ) :   0.3188
B( 20-Mg, 40-O ) :   0.3923 B( 21-Mg, 25-O ) :   0.4029 B( 21-Mg, 26-O ) :   0.4029
B( 21-Mg, 33-O ) :   0.3188 B( 21-Mg, 41-O ) :   0.3920 B( 22-Mg, 27-O ) :   0.4031
B( 22-Mg, 28-O ) :   0.4031 B( 22-Mg, 34-O ) :   0.3186 B( 22-Mg, 42-O ) :   0.3921
B( 23-Mg, 29-O ) :   0.4030 B( 23-Mg, 30-O ) :   0.4032 B( 23-Mg, 35-O ) :   0.3190
B( 23-Mg, 43-O ) :   0.3924 B( 36-O , 37-O ) :   0.1120 B( 36-O , 39-O ) :   0.1120
B( 37-O , 38-O ) :   0.1120 B( 38-O , 39-O ) :   0.1120

-------
TIMINGS
-------

Total SCF time: 0 days 0 hours 7 min 23 sec

Total time                  ....     443.144 sec
Sum of individual times     ....     443.207 sec  (100.0%)

SCF preparation             ....       1.530 sec  (  0.3%)
Fock matrix formation       ....     432.015 sec  ( 97.5%)
  Startup                   ....       0.121 sec  (  0.0% of F)
  Split-RI-J                ....      41.560 sec  (  9.6% of F)
  Chain of spheres X        ....     389.957 sec  ( 90.3% of F)
Diagonalization             ....       0.000 sec  (  0.0%)
Density matrix formation    ....       0.654 sec  (  0.1%)
Total Energy calculation    ....       0.232 sec  (  0.1%)
Population analysis         ....       0.349 sec  (  0.1%)
Orbital Transformation      ....       0.899 sec  (  0.2%)
Orbital Orthonormalization  ....       0.000 sec  (  0.0%)
DIIS solution               ....       5.395 sec  (  1.2%)
SOSCF solution              ....       2.030 sec  (  0.5%)
Finished LeanSCF after 443.4 sec

Maximum memory used throughout the entire LEANSCF-calculation: 311.4 MB


           ************************************************************
           *        Program running with 8 parallel MPI-processes     *
           *              working on a common directory               *
           ************************************************************

------------------------------------------------------------------------------
                                ORCA  MP2
------------------------------------------------------------------------------

NOTE: Switching SHARK to Segmented Contraction for MP2
      If that is not desired please turn off the PGCFlag in the input (%shark PGCFlag 0 end)
      Number of basis functions in BAS before restore: 1432
      Number of basis functions in BAS after restore : 947
Freezing NCore=188 chemical core electrons

-------------
RI-MP2 ENERGY
-------------
Dimension of the orbital basis            ...  947
Dimension of the AuxC basis               ... 3220
Memory devoted to MP2                     ... 25000 MB
Data format for matrix containers         ... DOUBLE
Compression type for matrix containers    ... UNCOMPRESSED

-----------------------
SHARK RI TRANSFORMATION
-----------------------

Number of basis functions                ...    947
Number of aux functions                  ...   3220
Number of operators                      ...      1
Generation of IJK                        ... NO
Generation of IAK                        ... YES
Generation of ABK                        ... NO
Orbital Range Operator  0:   94- 209 to  210- 946

Aux basis identifier                     ...   AUXC
Contraction scheme used                  ... SEGMENTED
Do orthogonalization                     ... YES
All operator combinations                ... NO
Transpose (ia|K)                         ... NO
Integral generator used                  ... LIBINT
Starting integral generation + trafo...
Half trafo (segmented) done. Total time = 16.9 sec. integrals=  8.9 sec trafo=  7.3 sec
Integral generation and half transformation done ( 16.9 sec)

Reading or making V^(-1/2)          ... done (  0.3 sec)
Sorting IAK integrals               ... done (  8.7 sec)

SHARK RI integral transformation done. Total time = 26.0 sec.

Opening buffers                              ... done

Starting loop over batches of integrals:

Operator 0  - window                       ... ( 94-209)x(210-946)
Operator 0  - Memory available             ... 25000 MB
Operator 0  - Memory needed per MO         ...  18.1 MB
Operator 0  - Number of orbitals per batch ... 15
Operator 0  - Number of batches            ... 1

OPERATOR  0   PASS   0:  MOs    94 ...  108 +  109 ...  123 +  124 ...  138 +  139 ...  153
                            +  154 ...  168 +  169 ...  183 +  184 ...  198 +  199 ...  209
  Reading integrals       ... ok
  Internal MO  96
  Internal MO  99
  Internal MO 102
  Internal MO 105
  Internal MO 108
Time spent in pair loops =   159.932 sec
Deleting buffers (Ka|jb) ...done

-----------------------------------------------
 RI-MP2 CORRELATION ENERGY:     -6.712160843 Eh
-----------------------------------------------


-------
TIMINGS
-------

Total time                :  189.253 sec
Integral trafo            :   26.026 sec ( 13.8%)
I/O of integrals          :    0.169 sec (  0.1%)
K(i,j) operators          :   12.078 sec (  6.4%)
T(i,j) pair energies      :    0.459 sec (  0.2%)
V**(-1/2)                 :    3.294 sec (  1.7%)


---------------------------------------
MP2 TOTAL ENERGY:    -6045.250795318 Eh
---------------------------------------

Maximum memory used throughout the entire MP2-calculation: 452.8 MB

-------------------------   --------------------
FINAL SINGLE POINT ENERGY     -6045.250795318363
-------------------------   --------------------



           ************************************************************
           *        Program running with 8 parallel MPI-processes     *
           *              working on a common directory               *
           ************************************************************

------------------------------------------------------------------------------
                              ORCA PROPERTY CALCULATIONS
------------------------------------------------------------------------------

GBWName                                 ... orca.gbw
Number of atoms                         ...    153
Number of basis functions               ...   1432
Max core memory                         ...  25000 MB

Electric properties:
Dipole moment                           ... YES
Quadrupole moment                       ...  NO
Static polarizability (Dipole/Dipole)   ...  NO
Static polarizability (Dipole/Quad.)    ...  NO
Static polarizability (Quad./Quad.)     ...  NO
Static polarizability (Velocity)        ...  NO

Atomic electric properties:
Dipole moment                           ...  NO
Quadrupole moment                       ...  NO
Static polarizability                   ...  NO

Choice of electric origin               ... Center of mass
Position of electric origin             ...    -0.000000     0.000000    -1.932252

General magnetic properties:
Magnetizability                         ...  NO

EPR properties:
g-Tensor (aka g-matrix)                 ...  NO
Zero-Field splitting spin-orbit         ...  NO
Zero-field splitting spin-spin          ...  NO
Hyperfine couplings                     ...  NO (   0 nuclei)
Quadrupole couplings                    ...  NO (   0 nuclei)
Contact density                         ...  NO (   0 nuclei)

NMR properties:
Chemical shifts                         ...  NO (   0 nuclei)
Spin-rotation constants                 ...  NO (   0 nuclei)
Spin-spin couplings                     ...  NO (   0 nuclei,    0 pairs)

Choice of magnetic origin               ... GIAO
Position of magnetic origin             ...     0.000000     0.000000     0.000000

Properties with geometric perturbations:
SCF Hessian                             ...  NO
IR spectrum                             ...  NO
VCD spectrum                            ...  NO
X-ray spectroscopy properties:
SCF XES/XAS/RIXS spectra                ...  NO


-------------
DIPOLE MOMENT
-------------

Method             : SCF
Type of density    : Electron Density
Multiplicity       :   1
Irrep              :   0
Energy             : -6038.5386344749103955 Eh
Relativity type    :
Basis              : AO
                                X                 Y                 Z
Electronic contribution:      0.000006087      -0.000007116      43.514390316
Nuclear contribution   :      0.000000000       0.000000000    -633.365719794
                        -----------------------------------------
Total Dipole Moment    :      0.000006087      -0.000007116    -589.851329477
                        -----------------------------------------
Magnitude (a.u.)       :    589.851329477
Magnitude (Debye)      :   1499.282929562



--------------------
Rotational spectrum
--------------------

Rotational constants in cm-1:             0.002471             0.002471             0.001572
Rotational constants in MHz :            74.081150            74.081150            47.140754

Dipole components along the rotational axes:
x,y,z [a.u.] :     0.000006    -0.000007  -589.851329
x,y,z [Debye]:     0.000015    -0.000018 -1499.282930



Dipole moment calculation done in   0.1 sec

Maximum memory used throughout the entire PROP-calculation: 146.5 MB

--------------------------------
SUGGESTED CITATIONS FOR THIS RUN
--------------------------------

Below you find a list of papers that are relevant to this ORCA run
We neither can nor want to force you to cite these papers, but we appreciate if you do
You receive ORCA, which is the product of decades of hard work by many enthusiastic individuals, for free
The only thing we kindly ask in return is that you cite our papers,
We deeply appreciate it, if you show your appreciation for ORCA by not just citing the generic ORCA reference.

Please note that relegating all ORCA citations to the supporting information does *not* help us.
SI sections are not indexed - citations you put there will not count into any citation statistics
But we need these citations in order to attract the funding resources that allow us to do what we are doing

Therefore, if you are a happy ORCA user, please consider citing a few of the papers listed below in the main body of your paper

In addition to the list printed below, the program has created the file orca.bibtex that contains the list in bibtex format
You can import this file easily into all common literature databanks and citation aid programs


List of essential papers. We consider these as the minimum necessary citations

  1. Neese,F.
     Software update: the ORCA program system, version 5.0
     WIRES Comput. Molec. Sci., 2022 12(1)e1606
     doi.org/10.1002/wcms.1606

List of papers to cite with high priority. The work reported in these papers was absolutely
necessary for this run to complete.
Our perspective: the developers of density functionals and basis sets usually get cited in chemistry papers
Good! But without the algorithms to do something with them, the functionals or basis sets would not do anything.
Hence, in our opinion, the algorithm design and method developments papers are equally worthy of getting cited

  1. Neese,F.
     An improvement of the resolution of the identity approximation for the formation of the Coulomb matrix
     J. Comp. Chem., 2003 24(14)1740-1747
     doi.org/10.1002/jcc.10318
  2. Neese,F.; Wennmohs,F.; Hansen,A.; Becker,U.
     Efficient, approximate and parallel Hartree-Fock and hybrid DFT calculations. A 'chain-of-spheres' algorithm for the Hartree-Fock exchange
     Chem. Phys., 2009 356(1-3)98-109
     doi.org/10.1016/j.chemphys.2008.10.036
  3. Kossmann,S.; Neese,F.
     Efficient Structure Optimization with Second-Order Many-Body Perturbation Theory: The RIJCOSX-MP2 Method
     J. Theo. Comp. Chem., 2010 6 2325-2338
     doi.org/10.1021/ct100199k
  4. Helmich-Paris,B.; de Souza,B.; Neese,F.; Izsák,R.
     An improved chain of spheres for exchange algorithm
     J. Chem. Phys., 2021 155 104109
     doi.org/doi: 10.1063/5.0058766.
  5. Neese,F.
     The SHARK Integral Generation and Digestion System
     J. Comp. Chem., 2022  1-16
     doi.org/10.1002/jcc.26942

List of suggested additional citations. These are papers that are important in the 'surrounding' of
of this run, or papers that preceded the highly important papers. If you like your results we are grateful for a citation.

  1. Izsak,R.; Neese,F.
     An overlap fitted chain of spheres exchange method
     J. Chem. Phys., 2011 135 144105
     doi.org/10.1063/1.3646921
  2. Izsak,R.; Hansen,A.; Neese,F.
     The resolution of identity and chain of spheres approximations for the LPNO-CCSD singles Fock term
     Molec. Phys., 2012 110 2413-2417
     doi.org/10.1080/00268976.2012.687466
  3. Neese,F.
     The ORCA program system
     WIRES Comput. Molec. Sci., 2012 2(1)73-78
     doi.org/10.1002/wcms.81
  4. Izsak,R.; Neese,F.; Klopper,W.
     Robust fitting techniques in the chain of spheres approximation to the Fock exchange: The role of the complementary space
     J. Chem. Phys., 2013 139
     doi.org/10.1063/1.4819264
  5. Neese,F.
     Software update: the ORCA program system, version 4.0
     WIRES Comput. Molec. Sci., 2018 8(1)1-6
     doi.org/10.1002/wcms.1327
  6. Neese,F.; Wennmohs,F.; Becker,U.; Riplinger,C.
     The ORCA quantum chemistry program package
     J. Chem. Phys., 2020 152 Art. No. L224108
     doi.org/10.1063/5.0004608

List of optional additional citations

  1. Neese,F.
     Approximate second-order SCF convergence for spin unrestricted wavefunctions
     Chem. Phys. Lett., 2000 325(1-3)93-98
     doi.org/10.1016/s0009-2614(00)00662-x

Timings for individual modules:

Sum of individual times          ...      681.327 sec (=  11.355 min)
Startup calculation              ...       38.868 sec (=   0.648 min)   5.7 %
SCF iterations                   ...      447.046 sec (=   7.451 min)  65.6 %
Property calculations            ...        2.096 sec (=   0.035 min)   0.3 %
MP2 module                       ...      193.317 sec (=   3.222 min)  28.4 %
                             ****ORCA TERMINATED NORMALLY****
TOTAL RUN TIME: 0 days 0 hours 11 minutes 23 seconds 466 msec
