 vasp.6.3.0 20Jan22 (build Dec 25 2023 18:06:01) complex
 executed on        HPECrayEX_GCC date 2024.01.26  01:38:48
 running  512 mpi-ranks, with    1 threads/rank
 distrk:  each k-point on  512 cores,    1 groups
 distr:  one band on NCORE=   8 cores,   64 groups


--------------------------------------------------------------------------------------------------------


 INCAR:
   SYSTEM = MgO-rocksalt
   ISMEAR = 0
   SIGMA = 0.05
   EDIFF = 1E-5
   ALGO = ALL
   ISTART = 0
   IBRION = -1
   NSW = 0
   ISYM = 2
   ISIF = 2
   DIPOL = 0.5 0.5 0.5
   IDIPOL = 3
   LDIPOL = .TRUE.
   LHFCALC = .TRUE.
   GGA = B5
   AEXX = 0.2
   AGGAX = 0.72
   AGGAC = 0.81
   ALDAC = 0.19
   IVDW = 1
   VDW_S6 = 1.05
   VDW_C6 = 1.75 0.70 0.63 0.70
   VDW_R0 = 1.452 1.342 1.243 1.342
   ENCUT = 600
   PREC = Accurate
   LASPH = .TRUE.
   LREAL = .FALSE.
   ISPIN = 1
   NELM = 200
   NELMIN = 8
   NCORE = 8
   KPAR = 1
   LWAVE = .FALSE.
   LCHARG = .FALSE.

 POTCAR:    PAW_PBE C 08Apr2002
 POTCAR:    PAW_PBE O 08Apr2002
 POTCAR:    PAW_PBE Mg_pv 13Apr2007
 POTCAR:    PAW_PBE O 08Apr2002
 -----------------------------------------------------------------------------
|                                                                             |
|           W    W    AA    RRRRR   N    N  II  N    N   GGGG   !!!           |
|           W    W   A  A   R    R  NN   N  II  NN   N  G    G  !!!           |
|           W    W  A    A  R    R  N N  N  II  N N  N  G       !!!           |
|           W WW W  AAAAAA  RRRRR   N  N N  II  N  N N  G  GGG   !            |
|           WW  WW  A    A  R   R   N   NN  II  N   NN  G    G                |
|           W    W  A    A  R    R  N    N  II  N    N   GGGG   !!!           |
|                                                                             |
|     You have selected ISYM=2 for a HF type calculation. This will           |
|     symmetrize the charge density but not the exchange potential. I         |
|     suggest to use ISYM=3 instead. This uses symmetry to obtain the         |
|     orbitals at all k-points in the Brillouin zone, but does not apply      |
|     symmetry to the Hartree potential directly. The resultant charge        |
|     might have lower symmetry than the crystal but, at least, Hartree       |
|     and exchange are fully compatible.                                      |
|                                                                             |
 -----------------------------------------------------------------------------

 POTCAR:    PAW_PBE C 08Apr2002
   SHA256 =  253f7b50bb8d59471dbedb8285d89021f4a42ed1a2c5d38a03a736e69125dd95 C/POTCAR
   COPYR  = (c) Copyright 08Apr2002 Georg Kresse
   COPYR  = This file is part of the software VASP. Any use, copying, and all other rights are regul
   COPYR  = If you do not have a valid VASP license, you may not use, copy or distribute this file.
   VRHFIN =C: s2p2
   LEXCH  = PE
   EATOM  =   147.1560 eV,   10.8157 Ry

   TITEL  = PAW_PBE C 08Apr2002
   LULTRA =        F    use ultrasoft PP ?
   IUNSCR =        1    unscreen: 0-lin 1-nonlin 2-no
   RPACOR =    1.200    partial core radius
   POMASS =   12.011; ZVAL   =    4.000    mass and valenz
   RCORE  =    1.500    outmost cutoff radius
   RWIGS  =    1.630; RWIGS  =    0.863    wigner-seitz radius (au A)
   ENMAX  =  400.000; ENMIN  =  300.000 eV
   ICORE  =        2    local potential
   LCOR   =        T    correct aug charges
   LPAW   =        T    paw PP
   EAUG   =  644.873
   DEXC   =    0.000
   RMAX   =    1.529    core radius for proj-oper
   RAUG   =    1.300    factor for augmentation sphere
   RDEP   =    1.501    radius for radial grids
   RDEPT  =    1.300    core radius for aug-charge

   Atomic configuration
    4 entries
     n  l   j            E        occ.
     1  0  0.50      -273.3789   2.0000
     2  0  0.50       -13.7508   2.0000
     2  1  0.50        -5.2854   2.0000
     3  2  1.50        -5.4423   0.0000
   Description
     l       E           TYP  RCUT    TYP  RCUT
     0    -13.7508458     23  1.200
     0     -8.2022199     23  1.200
     1     -5.2854383     23  1.500
     1     34.0145650     23  1.500
     2     -5.4423304      7  1.500
  local pseudopotential read in
  partial core-charges read in
  partial kinetic energy density read in
  atomic valenz-charges read in
  non local Contribution for L=           0  read in
    real space projection operators read in
  non local Contribution for L=           0  read in
    real space projection operators read in
  non local Contribution for L=           1  read in
    real space projection operators read in
  non local Contribution for L=           1  read in
    real space projection operators read in
    PAW grid and wavefunctions read in

   number of l-projection  operators is LMAX  =           4
   number of lm-projection operators is LMMAX =           8

 POTCAR:    PAW_PBE O 08Apr2002
   SHA256 =  818f92134a0a090dccd8ba1447fa70422a3b330e708bb4f08108d8ae51209ddf O/POTCAR
   COPYR  = (c) Copyright 08Apr2002 Georg Kresse
   COPYR  = This file is part of the software VASP. Any use, copying, and all other rights are regul
   COPYR  = If you do not have a valid VASP license, you may not use, copy or distribute this file.
   VRHFIN =O: s2p4
   LEXCH  = PE
   EATOM  =   432.3788 eV,   31.7789 Ry

   TITEL  = PAW_PBE O 08Apr2002
   LULTRA =        F    use ultrasoft PP ?
   IUNSCR =        1    unscreen: 0-lin 1-nonlin 2-no
   RPACOR =    1.200    partial core radius
   POMASS =   16.000; ZVAL   =    6.000    mass and valenz
   RCORE  =    1.520    outmost cutoff radius
   RWIGS  =    1.550; RWIGS  =    0.820    wigner-seitz radius (au A)
   ENMAX  =  400.000; ENMIN  =  300.000 eV
   ICORE  =        2    local potential
   LCOR   =        T    correct aug charges
   LPAW   =        T    paw PP
   EAUG   =  605.392
   DEXC   =    0.000
   RMAX   =    1.553    core radius for proj-oper
   RAUG   =    1.300    factor for augmentation sphere
   RDEP   =    1.550    radius for radial grids
   RDEPT  =    1.329    core radius for aug-charge

   Atomic configuration
    4 entries
     n  l   j            E        occ.
     1  0  0.50      -514.6923   2.0000
     2  0  0.50       -23.9615   2.0000
     2  1  0.50        -9.0305   4.0000
     3  2  1.50        -9.5241   0.0000
   Description
     l       E           TYP  RCUT    TYP  RCUT
     0    -23.9615318     23  1.200
     0     -9.5240782     23  1.200
     1     -9.0304911     23  1.520
     1      8.1634956     23  1.520
     2     -9.5240782      7  1.500
  local pseudopotential read in
  partial core-charges read in
  partial kinetic energy density read in
  kinetic energy density of atom read in
  atomic valenz-charges read in
  non local Contribution for L=           0  read in
    real space projection operators read in
  non local Contribution for L=           0  read in
    real space projection operators read in
  non local Contribution for L=           1  read in
    real space projection operators read in
  non local Contribution for L=           1  read in
    real space projection operators read in
    PAW grid and wavefunctions read in

   number of l-projection  operators is LMAX  =           4
   number of lm-projection operators is LMMAX =           8

 POTCAR:    PAW_PBE Mg_pv 13Apr2007
   SHA256 =  f474ac0dd33840b9ae76c01d57fea79fdf77cdfbb07d5ade72c65f83c709b62b Mg_pv/POTCAR
   COPYR  = (c) Copyright 13Apr2007 Georg Kresse
   COPYR  = This file is part of the software VASP. Any use, copying, and all other rights are regul
   COPYR  = If you do not have a valid VASP license, you may not use, copy or distribute this file.
   VRHFIN =Mg: p6s2
   LEXCH  = PE
   EATOM  =  1056.7344 eV,   77.6678 Ry

   TITEL  = PAW_PBE Mg_pv 13Apr2007
   LULTRA =        F    use ultrasoft PP ?
   IUNSCR =        1    unscreen: 0-lin 1-nonlin 2-no
   RPACOR =    1.500    partial core radius
   POMASS =   24.305; ZVAL   =    8.000    mass and valenz
   RCORE  =    2.000    outmost cutoff radius
   RWIGS  =    2.000; RWIGS  =    1.058    wigner-seitz radius (au A)
   ENMAX  =  403.929; ENMIN  =  302.947 eV
   RCLOC  =    1.506    cutoff for local pot
   LCOR   =        T    correct aug charges
   LPAW   =        T    paw PP
   EAUG   =  758.780
   DEXC   =    0.000
   RMAX   =    2.045    core radius for proj-oper
   RAUG   =    1.300    factor for augmentation sphere
   RDEP   =    2.025    radius for radial grids
   RDEPT  =    1.557    core radius for aug-charge

   Atomic configuration
    5 entries
     n  l   j            E        occ.
     1  0  0.50     -1259.6230   2.0000
     2  0  0.50       -79.8442   2.0000
     2  1  1.50       -46.6121   6.0000
     3  0  0.50        -4.7055   2.0000
     3  2  1.50        -1.3606   0.0000
   Description
     l       E           TYP  RCUT    TYP  RCUT
     1    -46.6121073     23  1.600
     1      2.7211652     23  1.600
     0     -4.7054661     23  2.000
     0     61.2262170     23  2.000
     2     -1.3605826     23  2.000
  local pseudopotential read in
  partial core-charges read in
  partial kinetic energy density read in
  atomic valenz-charges read in
  non local Contribution for L=           1  read in
    real space projection operators read in
  non local Contribution for L=           1  read in
    real space projection operators read in
  non local Contribution for L=           0  read in
    real space projection operators read in
  non local Contribution for L=           0  read in
    real space projection operators read in
  non local Contribution for L=           2  read in
    real space projection operators read in
    PAW grid and wavefunctions read in

   number of l-projection  operators is LMAX  =           5
   number of lm-projection operators is LMMAX =          13

 POTCAR:    PAW_PBE O 08Apr2002
   SHA256 =  818f92134a0a090dccd8ba1447fa70422a3b330e708bb4f08108d8ae51209ddf O/POTCAR
   COPYR  = (c) Copyright 08Apr2002 Georg Kresse
   COPYR  = This file is part of the software VASP. Any use, copying, and all other rights are regul
   COPYR  = If you do not have a valid VASP license, you may not use, copy or distribute this file.
   VRHFIN =O: s2p4
   LEXCH  = PE
   EATOM  =   432.3788 eV,   31.7789 Ry

   TITEL  = PAW_PBE O 08Apr2002
   LULTRA =        F    use ultrasoft PP ?
   IUNSCR =        1    unscreen: 0-lin 1-nonlin 2-no
   RPACOR =    1.200    partial core radius
   POMASS =   16.000; ZVAL   =    6.000    mass and valenz
   RCORE  =    1.520    outmost cutoff radius
   RWIGS  =    1.550; RWIGS  =    0.820    wigner-seitz radius (au A)
   ENMAX  =  400.000; ENMIN  =  300.000 eV
   ICORE  =        2    local potential
   LCOR   =        T    correct aug charges
   LPAW   =        T    paw PP
   EAUG   =  605.392
   DEXC   =    0.000
   RMAX   =    1.553    core radius for proj-oper
   RAUG   =    1.300    factor for augmentation sphere
   RDEP   =    1.550    radius for radial grids
   RDEPT  =    1.329    core radius for aug-charge

   Atomic configuration
    4 entries
     n  l   j            E        occ.
     1  0  0.50      -514.6923   2.0000
     2  0  0.50       -23.9615   2.0000
     2  1  0.50        -9.0305   4.0000
     3  2  1.50        -9.5241   0.0000
   Description
     l       E           TYP  RCUT    TYP  RCUT
     0    -23.9615318     23  1.200
     0     -9.5240782     23  1.200
     1     -9.0304911     23  1.520
     1      8.1634956     23  1.520
     2     -9.5240782      7  1.500
  local pseudopotential read in
  partial core-charges read in
  partial kinetic energy density read in
  kinetic energy density of atom read in
  atomic valenz-charges read in
  non local Contribution for L=           0  read in
    real space projection operators read in
  non local Contribution for L=           0  read in
    real space projection operators read in
  non local Contribution for L=           1  read in
    real space projection operators read in
  non local Contribution for L=           1  read in
    real space projection operators read in
    PAW grid and wavefunctions read in

   number of l-projection  operators is LMAX  =           4
   number of lm-projection operators is LMMAX =           8

 -----------------------------------------------------------------------------
|                                                                             |
|               ----> ADVICE to this user running VASP <----                  |
|                                                                             |
|     You have a (more or less) 'large supercell' and for larger cells it     |
|     might be more efficient to use real-space projection operators.         |
|     Therefore, try LREAL= Auto in the INCAR file.                           |
|     Mind: For very accurate calculation, you might also keep the            |
|     reciprocal projection scheme (i.e. LREAL=.FALSE.).                      |
|                                                                             |
 -----------------------------------------------------------------------------

 -----------------------------------------------------------------------------
|                                                                             |
|               ----> ADVICE to this user running VASP <----                  |
|                                                                             |
|     You enforced a specific xc type in the INCAR file but a different       |
|     type was found in the POTCAR file.                                      |
|     I HOPE YOU KNOW WHAT YOU ARE DOING!                                     |
|                                                                             |
 -----------------------------------------------------------------------------

  PAW_PBE C 08Apr2002                   :
 energy of atom  1       EATOM= -147.1560
 kinetic energy error for atom=    0.0057 (will be added to EATOM!!)
  PAW_PBE O 08Apr2002                   :
 energy of atom  2       EATOM= -432.3788
 kinetic energy error for atom=    0.0168 (will be added to EATOM!!)
  PAW_PBE Mg_pv 13Apr2007               :
 energy of atom  3       EATOM=-1056.7344
 kinetic energy error for atom=    0.0221 (will be added to EATOM!!)
  PAW_PBE O 08Apr2002                   :
 energy of atom  4       EATOM= -432.3788
 kinetic energy error for atom=    0.0168 (will be added to EATOM!!)


 POSCAR:  C  O Mg  O
  positions in direct lattice
  No initial velocities read in
 exchange correlation table for  LEXCH =       12
   RHO(1)=    0.500       N(1)  =     2000
   RHO(2)=  100.500       N(2)  =     4000



--------------------------------------------------------------------------------------------------------


 ion  position               nearest neighbor table
   1  0.500  0.500  0.765-   2 1.15
   2  0.500  0.500  0.819-   1 1.15
   3  0.000  0.750  0.352-  35 2.11  37 2.11  38 2.11  45 2.11  54 2.11
   4  0.250  0.000  0.352-  36 2.11  37 2.11  38 2.11  46 2.11  53 2.11
   5  0.000  0.000  0.451-  37 2.11  36 2.11  35 2.11  43 2.11  52 2.11  41 2.12
   6  0.250  0.750  0.451-  38 2.11  36 2.11  35 2.11  44 2.11  51 2.11  42 2.12
   7  0.000  0.750  0.550-  49 2.11  42 2.11  58 2.11  41 2.11  35 2.12  39 2.15
   8  0.250  0.000  0.550-  57 2.11  50 2.11  42 2.11  41 2.11  36 2.12  40 2.15
   9  0.000  0.000  0.649-  39 2.11  40 2.11  47 2.11  56 2.11  41 2.11
  10  0.250  0.750  0.649-  42 2.11  40 2.11  39 2.11  48 2.11  55 2.11
  11  0.000  0.250  0.352-  43 2.11  37 2.11  45 2.11  46 2.11  62 2.11
  12  0.250  0.500  0.352-  44 2.11  38 2.11  45 2.11  46 2.11  61 2.11
  13  0.000  0.500  0.451-  45 2.11  43 2.11  44 2.11  35 2.11  60 2.11  49 2.12
  14  0.250  0.250  0.451-  46 2.11  43 2.11  44 2.11  36 2.11  59 2.11  50 2.12
  15  0.000  0.250  0.550-  49 2.11  50 2.11  66 2.11  41 2.11  43 2.12  47 2.15
  16  0.250  0.500  0.550-  65 2.11  50 2.11  42 2.11  49 2.11  44 2.13  48 2.15
  17  0.000  0.500  0.649-  48 2.10  64 2.10  49 2.11  47 2.11  39 2.11
  18  0.250  0.250  0.649-  50 2.11  47 2.11  40 2.11  48 2.11  63 2.11
  19  0.500  0.750  0.352-  51 2.11  38 2.11  53 2.11  54 2.11  61 2.11
  20  0.750  0.000  0.352-  52 2.11  37 2.11  53 2.11  54 2.11  62 2.11
  21  0.500  0.000  0.451-  53 2.11  51 2.11  52 2.11  36 2.11  59 2.11  57 2.12
  22  0.750  0.750  0.451-  54 2.11  51 2.11  52 2.11  35 2.11  60 2.11  58 2.12
  23  0.500  0.750  0.550-  65 2.11  58 2.11  42 2.11  57 2.11  51 2.13  55 2.15
  24  0.750  0.000  0.550-  57 2.11  58 2.11  66 2.11  41 2.11  52 2.12  56 2.15
  25  0.500  0.000  0.649-  55 2.10  63 2.10  57 2.11  40 2.11  56 2.11
  26  0.750  0.750  0.649-  58 2.11  56 2.11  39 2.11  55 2.11  64 2.11
  27  0.500  0.250  0.352-  59 2.11  53 2.11  46 2.11  61 2.11  62 2.11
  28  0.750  0.500  0.352-  60 2.11  54 2.11  45 2.11  61 2.11  62 2.11
  29  0.500  0.500  0.451-  61 2.11  51 2.11  59 2.11  60 2.11  44 2.11  65 2.13
  30  0.750  0.250  0.451-  62 2.11  52 2.11  59 2.11  60 2.11  43 2.11  66 2.12
  31  0.500  0.250  0.550-  65 2.11  50 2.11  66 2.11  57 2.11  59 2.13  63 2.15
  32  0.750  0.500  0.550-  65 2.11  58 2.11  66 2.11  49 2.11  60 2.13  64 2.15
  33  0.500  0.500  0.651-  48 2.12  55 2.12  63 2.12  64 2.12  65 2.14
  34  0.750  0.250  0.649-  66 2.11  56 2.11  47 2.11  64 2.11  63 2.11
  35  0.000  0.750  0.451-   3 2.11   5 2.11   6 2.11  13 2.11  22 2.11   7 2.12
  36  0.250  0.000  0.451-   4 2.11   5 2.11   6 2.11  14 2.11  21 2.11   8 2.12
  37  0.000  0.000  0.352-   5 2.11   4 2.11   3 2.11  11 2.11  20 2.11
  38  0.250  0.750  0.352-   6 2.11   4 2.11   3 2.11  12 2.11  19 2.11
  39  0.000  0.750  0.651-   9 2.11  10 2.11  26 2.11  17 2.11   7 2.15
  40  0.250  0.000  0.651-   9 2.11  10 2.11  18 2.11  25 2.11   8 2.15
  41  0.000  0.000  0.550-   9 2.11   8 2.11   7 2.11  15 2.11  24 2.11   5 2.12
  42  0.250  0.750  0.550-  10 2.11   8 2.11   7 2.11  16 2.11  23 2.11   6 2.12
  43  0.000  0.250  0.451-  11 2.11   5 2.11  13 2.11  14 2.11  30 2.11  15 2.12
  44  0.250  0.500  0.451-  12 2.11   6 2.11  13 2.11  14 2.11  29 2.11  16 2.13
  45  0.000  0.500  0.352-  13 2.11  11 2.11  12 2.11   3 2.11  28 2.11
  46  0.250  0.250  0.352-  14 2.11  11 2.11  12 2.11   4 2.11  27 2.11
  47  0.000  0.250  0.651-   9 2.11  18 2.11  34 2.11  17 2.11  15 2.15
  48  0.249  0.500  0.651-  17 2.10  10 2.11  18 2.11  33 2.12  16 2.15
  49  0.000  0.500  0.550-  17 2.11  15 2.11   7 2.11  16 2.11  32 2.11  13 2.12
  50  0.250  0.250  0.550-  18 2.11  15 2.11   8 2.11  16 2.11  31 2.11  14 2.12
  51  0.500  0.750  0.451-  19 2.11   6 2.11  21 2.11  22 2.11  29 2.11  23 2.13
  52  0.750  0.000  0.451-  20 2.11   5 2.11  21 2.11  22 2.11  30 2.11  24 2.12
  53  0.500  0.000  0.352-  21 2.11  19 2.11  20 2.11   4 2.11  27 2.11
  54  0.750  0.750  0.352-  22 2.11  19 2.11  20 2.11   3 2.11  28 2.11
  55  0.500  0.751  0.651-  25 2.10  10 2.11  26 2.11  33 2.12  23 2.15
  56  0.750  0.000  0.651-   9 2.11  26 2.11  34 2.11  25 2.11  24 2.15
  57  0.500  0.000  0.550-  25 2.11  24 2.11   8 2.11  23 2.11  31 2.11  21 2.12
  58  0.750  0.750  0.550-  26 2.11  24 2.11   7 2.11  32 2.11  23 2.11  22 2.12
  59  0.500  0.250  0.451-  27 2.11  21 2.11  14 2.11  29 2.11  30 2.11  31 2.13
  60  0.750  0.500  0.451-  28 2.11  22 2.11  13 2.11  29 2.11  30 2.11  32 2.13
  61  0.500  0.500  0.352-  29 2.11  19 2.11  27 2.11  28 2.11  12 2.11
  62  0.750  0.250  0.352-  30 2.11  20 2.11  27 2.11  28 2.11  11 2.11
  63  0.500  0.249  0.651-  25 2.10  18 2.11  34 2.11  33 2.12  31 2.15
  64  0.751  0.500  0.651-  17 2.10  26 2.11  34 2.11  33 2.12  32 2.15
  65  0.500  0.500  0.550-  16 2.11  23 2.11  31 2.11  32 2.11  29 2.13  33 2.14
  66  0.750  0.250  0.550-  34 2.11  24 2.11  15 2.11  32 2.11  31 2.11  30 2.12

  LATTYP: Found a simple tetragonal cell.
 ALAT       =     8.4409846542
 C/A-ratio  =     2.5270438657

  Lattice vectors:

 A1 = (   8.4409846542,   0.0000000000,   0.0000000000)
 A2 = (   0.0000000000,   8.4409846542,   0.0000000000)
 A3 = (   0.0000000000,   0.0000000000,  21.3307384906)


Analysis of symmetry for initial positions (statically):
=====================================================================
 Subroutine PRICEL returns:
 Original cell was already a primitive cell.


 Routine SETGRP: Setting up the symmetry group for a
 simple tetragonal supercell.


 Subroutine GETGRP returns: Found  8 space group operations
 (whereof  8 operations were pure point group operations)
 out of a pool of 16 trial point group operations.


The static configuration has the point symmetry C_4v.


Analysis of symmetry for dynamics (positions and initial velocities):
=====================================================================
 Subroutine PRICEL returns:
 Original cell was already a primitive cell.


 Routine SETGRP: Setting up the symmetry group for a
 simple tetragonal supercell.


 Subroutine GETGRP returns: Found  8 space group operations
 (whereof  8 operations were pure point group operations)
 out of a pool of 16 trial point group operations.


The dynamic configuration has the point symmetry C_4v.


Analysis of constrained symmetry for selective dynamics:
=====================================================================
 Subroutine PRICEL returns:
 Original cell was already a primitive cell.


 Routine SETGRP: Setting up the symmetry group for a
 simple tetragonal supercell.


 Subroutine GETGRP returns: Found  8 space group operations
 (whereof  8 operations were pure point group operations)
 out of a pool of 16 trial point group operations.


The constrained configuration has the point symmetry C_4v.


 Subroutine INISYM returns: Found  8 space group operations
 (whereof  8 operations are pure point group operations),
 and found     1 'primitive' translations


----------------------------------------------------------------------------------------

                                     Primitive cell

  volume of cell :    1519.8199

  direct lattice vectors                    reciprocal lattice vectors
     8.440984654  0.000000000  0.000000000     0.118469591  0.000000000  0.000000000
     0.000000000  8.440984654  0.000000000     0.000000000  0.118469591  0.000000000
     0.000000000  0.000000000 21.330738491     0.000000000  0.000000000  0.046880702

  length of vectors
     8.440984654  8.440984654 21.330738491     0.118469591  0.118469591  0.046880702

  position of ions in fractional coordinates (direct lattice)
     0.500000000  0.500000000  0.765053803
     0.500000000  0.500000000  0.818817521
     0.000000000  0.750000000  0.351605267
     0.250000000  0.000000000  0.351605267
     0.000000000  0.000000000  0.450535089
     0.250000000  0.750000000  0.450535089
     0.000000000  0.749939268  0.550083239
     0.250060732  0.000000000  0.550083239
     0.000000000  0.000000000  0.648745309
     0.249858327  0.750141673  0.648569547
     0.000000000  0.250000000  0.351605267
     0.250000000  0.500000000  0.351605267
     0.000000000  0.500000000  0.450535089
     0.250000000  0.250000000  0.450535089
     0.000000000  0.250060732  0.550083239
     0.250378379  0.500000000  0.550219524
     0.000000000  0.500000000  0.648615280
     0.249858327  0.249858327  0.648569547
     0.500000000  0.750000000  0.351605267
     0.750000000  0.000000000  0.351605267
     0.500000000  0.000000000  0.450535089
     0.750000000  0.750000000  0.450535089
     0.500000000  0.749621621  0.550219524
     0.749939268  0.000000000  0.550083239
     0.500000000  0.000000000  0.648615280
     0.750141673  0.750141673  0.648569547
     0.500000000  0.250000000  0.351605267
     0.750000000  0.500000000  0.351605267
     0.500000000  0.500000000  0.450535089
     0.750000000  0.250000000  0.450535089
     0.500000000  0.250378379  0.550219524
     0.749621621  0.500000000  0.550219524
     0.500000000  0.500000000  0.650616960
     0.750141673  0.249858327  0.648569547
     0.000000000  0.750000000  0.450535089
     0.250000000  0.000000000  0.450535089
     0.000000000  0.000000000  0.351605267
     0.250000000  0.750000000  0.351605267
     0.000000000  0.750218533  0.650979255
     0.249781467  0.000000000  0.650979255
     0.000000000  0.000000000  0.549809890
     0.249945770  0.750054230  0.549859113
     0.000000000  0.250000000  0.450535089
     0.250000000  0.500000000  0.450535089
     0.000000000  0.500000000  0.351605267
     0.250000000  0.250000000  0.351605267
     0.000000000  0.249781467  0.650979255
     0.248822710  0.500000000  0.650882872
     0.000000000  0.500000000  0.549762666
     0.249945770  0.249945770  0.549859113
     0.500000000  0.750000000  0.450535089
     0.750000000  0.000000000  0.450535089
     0.500000000  0.000000000  0.351605267
     0.750000000  0.750000000  0.351605267
     0.500000000  0.751177290  0.650882872
     0.750218533  0.000000000  0.650979255
     0.500000000  0.000000000  0.549762666
     0.750054230  0.750054230  0.549859113
     0.500000000  0.250000000  0.450535089
     0.750000000  0.500000000  0.450535089
     0.500000000  0.500000000  0.351605267
     0.750000000  0.250000000  0.351605267
     0.500000000  0.248822710  0.650882872
     0.751177290  0.500000000  0.650882872
     0.500000000  0.500000000  0.550231357
     0.750054230  0.249945770  0.549859113

  ion indices of the primitive-cell ions
   primitive index   ion index
                 1           1
                 2           2
                 3           3
                 4           4
                 5           5
                 6           6
                 7           7
                 8           8
                 9           9
                10          10
                11          11
                12          12
                13          13
                14          14
                15          15
                16          16
                17          17
                18          18
                19          19
                20          20
                21          21
                22          22
                23          23
                24          24
                25          25
                26          26
                27          27
                28          28
                29          29
                30          30
                31          31
                32          32
                33          33
                34          34
                35          35
                36          36
                37          37
                38          38
                39          39
                40          40
                41          41
                42          42
                43          43
                44          44
                45          45
                46          46
                47          47
                48          48
                49          49
                50          50
                51          51
                52          52
                53          53
                54          54
                55          55
                56          56
                57          57
                58          58
                59          59
                60          60
                61          61
                62          62
                63          63
                64          64
                65          65
                66          66

----------------------------------------------------------------------------------------



 KPOINTS: pymatgen v2020.8.13 with grid density =

Automatic generation of k-mesh.
 Grid dimensions read from file:
 generate k-points for:    2    2    1

 Generating k-lattice:

  Cartesian coordinates                     Fractional coordinates (reciprocal lattice)
     0.059234796  0.000000000  0.000000000     0.500000000  0.000000000  0.000000000
     0.000000000  0.059234796  0.000000000     0.000000000  0.500000000  0.000000000
     0.000000000  0.000000000  0.046880702     0.000000000  0.000000000  1.000000000

  Length of vectors
     0.059234796  0.059234796  0.046880702

  Shift w.r.t. Gamma in fractional coordinates (k-lattice)
     0.000000000  0.000000000  0.000000000


 Subroutine IBZKPT returns following result:
 ===========================================

 Found      3 irreducible k-points:

 Following reciprocal coordinates:
            Coordinates               Weight
  0.000000  0.000000  0.000000      1.000000
  0.500000  0.000000  0.000000      2.000000
  0.500000  0.500000  0.000000      1.000000

 Following cartesian coordinates:
            Coordinates               Weight
  0.000000  0.000000  0.000000      1.000000
  0.059235  0.000000  0.000000      2.000000
  0.059235  0.059235  0.000000      1.000000


 Subroutine IBZKPT_HF returns following result:
 ==============================================

 Found      4 k-points in 1st BZ
 the following      4 k-points will be used (e.g. in the exchange kernel)
 Following reciprocal coordinates:   # in IRBZ
  0.000000  0.000000  0.000000    0.25000000   1 t-inv F
  0.500000  0.000000  0.000000    0.25000000   2 t-inv F
  0.500000  0.500000  0.000000    0.25000000   3 t-inv F
 -0.000000  0.500000  0.000000    0.25000000   2 t-inv F


--------------------------------------------------------------------------------------------------------




 Dimension of arrays:
   k-points           NKPTS =      3   k-points in BZ     NKDIM =      4   number of bands    NBANDS=    320
   number of dos      NEDOS =    301   number of ions     NIONS =     66
   non local maximal  LDIM  =      5   non local SUM 2l+1 LMDIM =     13
   total plane-waves  NPLWV = 882000
   max r-space proj   IRMAX =      1   max aug-charges    IRDMAX=  11635
   dimension x,y,z NGX =    70 NGY =   70 NGZ =  180
   dimension x,y,z NGXF=   140 NGYF=  140 NGZF=  360
   support grid    NGXF=   140 NGYF=  140 NGZF=  360
   ions per type =               1   1  32  32
   NGX,Y,Z   is equivalent  to a cutoff of  13.79, 13.79, 14.03 a.u.
   NGXF,Y,Z  is equivalent  to a cutoff of  27.57, 27.57, 28.06 a.u.

 SYSTEM =  MgO-rocksalt
 POSCAR =   C  O Mg  O

 Startparameter for this run:
   NWRITE =      2    write-flag & timer
   PREC   = accura    normal or accurate (medium, high low for compatibility)
   ISTART =      0    job   : 0-new  1-cont  2-samecut
   ICHARG =      2    charge: 1-file 2-atom 10-const
   ISPIN  =      1    spin polarized calculation?
   LNONCOLLINEAR =      F non collinear calculations
   LSORBIT =      F    spin-orbit coupling
   INIWAV =      1    electr: 0-lowe 1-rand  2-diag
   LASPH  =      T    aspherical Exc in radial PAW
 Electronic Relaxation 1
   ENCUT  =  600.0 eV  44.10 Ry    6.64 a.u.  16.86 16.86 42.60*2*pi/ulx,y,z
   ENINI  =  600.0     initial cutoff
   ENAUG  =  758.8 eV  augmentation charge cutoff
   NELM   =    200;   NELMIN=  8; NELMDL= -5     # of ELM steps
   EDIFF  = 0.1E-04   stopping-criterion for ELM
   LREAL  =      F    real-space projection
   NLSPLINE    = F    spline interpolate recip. space projectors
   LCOMPAT=      F    compatible to vasp.4.4
   GGA_COMPAT  = T    GGA compatible to vasp.4.4-vasp.4.6
   LMAXPAW     = -100 max onsite density
   LMAXMIX     =    2 max onsite mixed and CHGCAR
   VOSKOWN=      0    Vosko Wilk Nusair interpolation
   ROPT   =    0.00000   0.00000   0.00000   0.00000
 Ionic relaxation
   EDIFFG = 0.1E-03   stopping-criterion for IOM
   NSW    =      0    number of steps for IOM
   NBLOCK =      1;   KBLOCK =      1    inner block; outer block
   IBRION =     -1    ionic relax: 0-MD 1-quasi-New 2-CG
   NFREE  =      0    steps in history (QN), initial steepest desc. (CG)
   ISIF   =      2    stress and relaxation
   IWAVPR =     10    prediction:  0-non 1-charg 2-wave 3-comb
   ISYM   =      2    0-nonsym 1-usesym 2-fastsym
   LCORR  =      T    Harris-Foulkes like correction to forces

   POTIM  = 0.5000    time-step for ionic-motion
   TEIN   =    0.0    initial temperature
   TEBEG  =    0.0;   TEEND  =   0.0 temperature during run
   SMASS  =  -3.00    Nose mass-parameter (am)
   estimated Nose-frequenzy (Omega)   =  0.10E-29 period in steps = 0.13E+47 mass=  -0.163E-26a.u.
   SCALEE = 1.0000    scale energy and forces
   NPACO  =    256;   APACO  = 10.0  distance and # of slots for P.C.
   PSTRESS=    0.0 pullay stress

  Mass of Ions in am
   POMASS =  12.01 16.00 24.30 16.00
  Ionic Valenz
   ZVAL   =   4.00  6.00  8.00  6.00
  Atomic Wigner-Seitz radii
   RWIGS  =  -1.00 -1.00 -1.00 -1.00
  virtual crystal weights
   VCA    =   1.00  1.00  1.00  1.00
   NELECT =     458.0000    total number of electrons
   NUPDOWN=      -1.0000    fix difference up-down

 DOS related values:
   EMIN   =  10.00;   EMAX   =-10.00  energy-range for DOS
   EFERMI =   0.00
   ISMEAR =     0;   SIGMA  =   0.05  broadening in eV -4-tet -1-fermi 0-gaus

 Electronic relaxation 2 (details)
   IALGO  =     58    algorithm
   LDIAG  =      T    sub-space diagonalisation (order eigenvalues)
   LSUBROT=      F    optimize rotation matrix (better conditioning)
   TURBO    =      0    0=normal 1=particle mesh
   IRESTART =      0    0=no restart 2=restart with 2 vectors
   NREBOOT  =      0    no. of reboots
   NMIN     =      0    reboot dimension
   EREF     =   0.00    reference energy to select bands
   IMIX   =      4    mixing-type and parameters
     AMIX     =   0.40;   BMIX     =  1.00
     AMIX_MAG =   1.60;   BMIX_MAG =  1.00
     AMIN     =   0.10
     WC   =   100.;   INIMIX=   1;  MIXPRE=   1;  MAXMIX= -45

 Intra band minimization:
   WEIMIN = 0.0000     energy-eigenvalue tresh-hold
   EBREAK =  0.78E-08  absolut break condition
   DEPER  =   0.30     relativ break condition

   TIME   =   0.40     timestep for ELM

  volume/ion in A,a.u.               =      23.03       155.40
  Fermi-wavevector in a.u.,A,eV,Ry     =   1.097571  2.074108 16.390423  1.204662
  Thomas-Fermi vector in A             =   2.233933

 Write flags
   LWAVE        =      F    write WAVECAR
   LDOWNSAMPLE  =      F    k-point downsampling of WAVECAR
   LCHARG       =      F    write CHGCAR
   LVTOT        =      F    write LOCPOT, total local potential
   LVHAR        =      F    write LOCPOT, Hartree potential only
   LELF         =      F    write electronic localiz. function (ELF)
   LORBIT       =      0    0 simple, 1 ext, 2 COOP (PROOUT), +10 PAW based schemes


 Dipole corrections
   LMONO  =      F    monopole corrections only (constant potential shift)
   LDIPOL =      T    correct potential (dipole corrections)
   IDIPOL =      3    1-x, 2-y, 3-z, 4-all directions
   EPSILON=  1.0000000 bulk dielectric constant

 Exchange correlation treatment:
   GGA     =    B5    GGA type
   LEXCH   =    12    internal setting for exchange type
   LIBXC   =     F    Libxc
   VOSKOWN =     0    Vosko Wilk Nusair interpolation
   EXXOEP  =     0    0=HF, 1=EXX-LHF (local Hartree Fock) 2=EXX OEP
   LHFCALC =     T    Hartree Fock is set to
   LSYMGRAD=     F    symmetrize gradient (conserves proper symmetry)
   PRECFOCK=normal    Normal, Fast or Accurate (Low or Medium for compatibility)
   LRHFCALC=     F    long range Hartree Fock
   LRSCOR  =     F    long range correlation only (use DFT for short range part)
   LTHOMAS =     F    Thomas Fermi screening in HF
   LMODELHF=     F    short range full HF, long range fraction AEXX
   LFOCKACE=     T    use Adeptively-Compressed-Exchange operator
   ENCUT4O =  -1.0   cutoff for four orbital integrals eV
   LMAXFOCK=     4    L truncation for augmentation on plane wave grid
   LMAXFOCKAE=  -1    L truncation for all-electron charge restoration on plane wave grid
   NMAXFOCKAE=   1    number of basis functions for all-electron charge restoration
   LFOCKAEDFT=     F  apply the AE augmentation even for DFT
   NKREDX  =     1    reduce k-point grid by
   NKREDY  =     1    reduce k-point grid by
   NKREDZ  =     1    reduce k-point grid by
   SHIFTRED=     F    shift reduced grid of Gamma
   HFKIDENT=     F    idential grid for each k-point
   ODDONLY =     F    use only odd q-grid points
   EVENONLY=     F    use only even q-grid points
   HFALPHA =   -1.0000 decay constant for conv. correction
   MCALPHA =    0.0000 extent of test-charge in conv. correction in multipole expansion
   AEXX    =    0.2000 exact exchange contribution
   HFSCREEN=    0.0000 screening length (either q_TF or 0.3 A-1)
   HFSCREENC=   0.0000 screening length for correlation (either q_TF or 0.3 A-1)
   HFRCUT  =    0.0000 spherical cutoff for potential kernel
   ALDAX   =    0.8000 LDA exchange part
   AGGAX   =    0.7200 GGA exchange part
   ALDAC   =    0.1900 LDA correlation
   AGGAC   =    0.8100 GGA correlation
   ENCUTFOCK=  -1.0 apply spherical cutoff to Coloumb kernel
   NBANDSGWLOW=     1    first orbital included in HF term
   NBLOCK_FOCK=    64    blocking factor in FOCK_ACC

 Linear response parameters
   LEPSILON=     F    determine dielectric tensor
   LRPA    =     F    only Hartree local field effects (RPA)
   LNABLA  =     F    use nabla operator in PAW spheres
   LVEL    =     F    velocity operator in full k-point grid
   CSHIFT  =0.1000    complex shift for real part using Kramers Kronig
   OMEGAMAX=  -1.0    maximum frequency
   DEG_THRESHOLD= 0.2000000E-02 threshold for treating states as degnerate
   RTIME   =   -0.100 relaxation time in fs
  (WPLASMAI=    0.000 imaginary part of plasma frequency in eV, 0.658/RTIME)
   DFIELD  = 0.0000000 0.0000000 0.0000000 field for delta impulse in time

  Optional k-point grid parameters
   LKPOINTS_OPT  =     F    use optional k-point grid
   KPOINTS_OPT_MODE=     1    mode for optional k-point grid

 Orbital magnetization related:
   ORBITALMAG=     F  switch on orbital magnetization
   LCHIMAG   =     F  perturbation theory with respect to B field
   DQ        =  0.001000  dq finite difference perturbation B field
   LLRAUG    =     F  two centre corrections for induced B field



--------------------------------------------------------------------------------------------------------


 Static calculation
 charge density and potential will be updated during run
 non-spin polarized calculation
 Conjugate gradient for all bands (Freysoldt, et al. PRB 79, 241103 (2009))
 preconditioned conjugated gradient
 perform sub-space diagonalisation
    before iterative eigenvector-optimisation
 modified Broyden-mixing scheme, WC =      100.0
 initial mixing is a Kerker type mixing with AMIX =  0.4000 and BMIX =      1.0000
 Hartree-type preconditioning will be used
 using additional bands           91
 reciprocal scheme for non local part
 use partial core corrections
 no Harris-corrections to forces
 use gradient corrections
 use of overlap-Matrix (Vanderbilt PP)
 Gauss-broadening in eV      SIGMA  =   0.05


--------------------------------------------------------------------------------------------------------


  energy-cutoff  :      600.00
  volume of cell :     1519.82
      direct lattice vectors                 reciprocal lattice vectors
     8.440984654  0.000000000  0.000000000     0.118469591  0.000000000  0.000000000
     0.000000000  8.440984654  0.000000000     0.000000000  0.118469591  0.000000000
     0.000000000  0.000000000 21.330738491     0.000000000  0.000000000  0.046880702

  length of vectors
     8.440984654  8.440984654 21.330738491     0.118469591  0.118469591  0.046880702



 k-points in units of 2pi/SCALE and weight: pymatgen v2020.8.13 with grid density =
   0.00000000  0.00000000  0.00000000       0.250
   0.05923480  0.00000000  0.00000000       0.500
   0.05923480  0.05923480  0.00000000       0.250

 k-points in reciprocal lattice and weights: pymatgen v2020.8.13 with grid density =
   0.00000000  0.00000000  0.00000000       0.250
   0.50000000  0.00000000  0.00000000       0.500
   0.50000000  0.50000000  0.00000000       0.250

 position of ions in fractional coordinates (direct lattice)
   0.50000000  0.50000000  0.76505380
   0.50000000  0.50000000  0.81881752
   0.00000000  0.75000000  0.35160527
   0.25000000  0.00000000  0.35160527
   0.00000000  0.00000000  0.45053509
   0.25000000  0.75000000  0.45053509
   0.00000000  0.74993927  0.55008324
   0.25006073  0.00000000  0.55008324
   0.00000000  0.00000000  0.64874531
   0.24985833  0.75014167  0.64856955
   0.00000000  0.25000000  0.35160527
   0.25000000  0.50000000  0.35160527
   0.00000000  0.50000000  0.45053509
   0.25000000  0.25000000  0.45053509
   0.00000000  0.25006073  0.55008324
   0.25037838  0.50000000  0.55021952
   0.00000000  0.50000000  0.64861528
   0.24985833  0.24985833  0.64856955
   0.50000000  0.75000000  0.35160527
   0.75000000  0.00000000  0.35160527
   0.50000000  0.00000000  0.45053509
   0.75000000  0.75000000  0.45053509
   0.50000000  0.74962162  0.55021952
   0.74993927  0.00000000  0.55008324
   0.50000000  0.00000000  0.64861528
   0.75014167  0.75014167  0.64856955
   0.50000000  0.25000000  0.35160527
   0.75000000  0.50000000  0.35160527
   0.50000000  0.50000000  0.45053509
   0.75000000  0.25000000  0.45053509
   0.50000000  0.25037838  0.55021952
   0.74962162  0.50000000  0.55021952
   0.50000000  0.50000000  0.65061696
   0.75014167  0.24985833  0.64856955
   0.00000000  0.75000000  0.45053509
   0.25000000  0.00000000  0.45053509
   0.00000000  0.00000000  0.35160527
   0.25000000  0.75000000  0.35160527
   0.00000000  0.75021853  0.65097926
   0.24978147  0.00000000  0.65097926
   0.00000000  0.00000000  0.54980989
   0.24994577  0.75005423  0.54985911
   0.00000000  0.25000000  0.45053509
   0.25000000  0.50000000  0.45053509
   0.00000000  0.50000000  0.35160527
   0.25000000  0.25000000  0.35160527
   0.00000000  0.24978147  0.65097926
   0.24882271  0.50000000  0.65088287
   0.00000000  0.50000000  0.54976267
   0.24994577  0.24994577  0.54985911
   0.50000000  0.75000000  0.45053509
   0.75000000  0.00000000  0.45053509
   0.50000000  0.00000000  0.35160527
   0.75000000  0.75000000  0.35160527
   0.50000000  0.75117729  0.65088287
   0.75021853  0.00000000  0.65097926
   0.50000000  0.00000000  0.54976267
   0.75005423  0.75005423  0.54985911
   0.50000000  0.25000000  0.45053509
   0.75000000  0.50000000  0.45053509
   0.50000000  0.50000000  0.35160527
   0.75000000  0.25000000  0.35160527
   0.50000000  0.24882271  0.65088287
   0.75117729  0.50000000  0.65088287
   0.50000000  0.50000000  0.55023136
   0.75005423  0.24994577  0.54985911

 position of ions in cartesian coordinates  (Angst):
   4.22049233  4.22049233 16.31916259
   4.22049233  4.22049233 17.46598241
   0.00000000  6.33073849  7.50000000
   2.11024616  0.00000000  7.50000000
   0.00000000  0.00000000  9.61024616
   2.11024616  6.33073849  9.61024616
   0.00000000  6.33022585 11.73368172
   2.11075880  0.00000000 11.73368172
   0.00000000  0.00000000 13.83821654
   2.10905031  6.33193435 13.83446740
   0.00000000  2.11024616  7.50000000
   2.11024616  4.22049233  7.50000000
   0.00000000  4.22049233  9.61024616
   2.11024616  2.11024616  9.61024616
   0.00000000  2.11075880 11.73368172
   2.11344006  4.22049233 11.73658877
   0.00000000  4.22049233 13.83544293
   2.10905031  2.10905031 13.83446740
   4.22049233  6.33073849  7.50000000
   6.33073849  0.00000000  7.50000000
   4.22049233  0.00000000  9.61024616
   6.33073849  6.33073849  9.61024616
   4.22049233  6.32754460 11.73658877
   6.33022585  0.00000000 11.73368172
   4.22049233  0.00000000 13.83544293
   6.33193435  6.33193435 13.83446740
   4.22049233  2.11024616  7.50000000
   6.33073849  4.22049233  7.50000000
   4.22049233  4.22049233  9.61024616
   6.33073849  2.11024616  9.61024616
   4.22049233  2.11344006 11.73658877
   6.32754460  4.22049233 11.73658877
   4.22049233  4.22049233 13.87814023
   6.33193435  2.10905031 13.83446740
   0.00000000  6.33073849  9.61024616
   2.11024616  0.00000000  9.61024616
   0.00000000  0.00000000  7.50000000
   2.11024616  6.33073849  7.50000000
   0.00000000  6.33258312 13.88586825
   2.10840153  0.00000000 13.88586825
   0.00000000  0.00000000 11.72785099
   2.10978841  6.33119624 11.72890095
   0.00000000  2.11024616  9.61024616
   2.11024616  4.22049233  9.61024616
   0.00000000  4.22049233  7.50000000
   2.11024616  2.11024616  7.50000000
   0.00000000  2.10840153 13.88586825
   2.10030867  4.22049233 13.88381232
   0.00000000  4.22049233 11.72684365
   2.10978841  2.10978841 11.72890095
   4.22049233  6.33073849  9.61024616
   6.33073849  0.00000000  9.61024616
   4.22049233  0.00000000  7.50000000
   6.33073849  6.33073849  7.50000000
   4.22049233  6.34067598 13.88381232
   6.33258312  0.00000000 13.88586825
   4.22049233  0.00000000 11.72684365
   6.33119624  6.33119624 11.72890095
   4.22049233  2.11024616  9.61024616
   6.33073849  4.22049233  9.61024616
   4.22049233  4.22049233  7.50000000
   6.33073849  2.11024616  7.50000000
   4.22049233  2.10030867 13.88381232
   6.34067598  4.22049233 13.88381232
   4.22049233  4.22049233 11.73684118
   6.33119624  2.10978841 11.72890095



--------------------------------------------------------------------------------------------------------


 k-point   1 :   0.0000 0.0000 0.0000  plane waves:   50745
 k-point   2 :   0.5000 0.0000 0.0000  plane waves:   50798
 k-point   3 :   0.5000 0.5000 0.0000  plane waves:   50752

 maximum and minimum number of plane-waves per node :      6394     6276

 maximum number of plane-waves:     50798
 maximum index in each direction:
   IXMAX=   16   IYMAX=   16   IZMAX=   42
   IXMIN=  -17   IYMIN=  -17   IZMIN=  -42


 parallel 3D FFT for wavefunctions:
    minimum data exchange during FFTs selected (reduces bandwidth)
 parallel 3D FFT for charge:
    minimum data exchange during FFTs selected (reduces bandwidth)


 FFT grid for exact exchange (Hartree Fock)
  NGX = 54; NGY = 54; NGZ =128


 Radii for the augmentation spheres in the non-local exchange
 for species   1 augmentation radius   0.874 (default was   0.699)
       energy cutoff for augmentation   2400.0
 for species   2 augmentation radius   0.902 (default was   0.722)
       energy cutoff for augmentation   2400.0
 for species   3 augmentation radius   1.037 (default was   0.829)
       energy cutoff for augmentation   2400.0
 for species   4 augmentation radius   0.902 (default was   0.722)
       energy cutoff for augmentation   2400.0

 real space projection operators:
  total allocation   :       8963.72 KBytes
  max/ min on nodes  :       1251.34        827.75

 Maximum index for augmentation-charges in exchange          164
  SETUP_FOCK is finished

 total amount of memory used by VASP MPI-rank0    68523. kBytes
=======================================================================

   base      :      30000. kBytes
   nonl-proj :      14893. kBytes
   fftplans  :       7742. kBytes
   grid      :       8190. kBytes
   one-center:         73. kBytes
   HF        :        101. kBytes
   nonlr-proj:       2778. kBytes
   wavefun   :       4746. kBytes

     INWAV:  cpu time      0.0001: real time      0.0002
 Broyden mixing: mesh for mixing (old mesh)
   NGX = 33   NGY = 33   NGZ = 85
  (NGX  =140   NGY  =140   NGZ  =360)
  gives a total of  92565 points

 initial charge density was supplied:
 charge density of overlapping atoms calculated
 number of electron     458.0000000 magnetization
 keeping initial charge density in first step


--------------------------------------------------------------------------------------------------------


 Maximum index for augmentation-charges          608 (set IRDMAX)


--------------------------------------------------------------------------------------------------------


    FEWALD:  cpu time      0.0029: real time      0.0030


--------------------------------------- Iteration      1(   1)  ---------------------------------------


    POTLOK:  cpu time      0.0818: real time      0.0823
    SETDIJ:  cpu time      0.1561: real time      0.1564
    TRIAL :  cpu time     18.5708: real time     18.5750
    CORREC:  cpu time      0.0011: real time      0.0011
    --------------------------------------------
      LOOP:  cpu time     18.8155: real time     18.8205

 eigenvalue-minimisations  :  2304
 total energy-change (2. order) : 0.1338795E+04  (-0.3101345E+05)
 number of electron     458.0000000 magnetization
 augmentation part      458.0000000 magnetization

 DIPCOR: dipole corrections for dipol
 direction  3 min pos     1,
 dipolmoment           0.000000      0.000000     -0.000256 electrons x Angstroem
 Tr[quadrupol]     -6318.706890

 energy correction for charged system         0.000000 eV
 dipol+quadrupol energy correction           -0.000000 eV
 added-field ion interaction          0.002074 eV  (added to PSCEN)


 Free energy of the ion-electron system (eV)
  ---------------------------------------------------
  alpha Z        PSCENC =       907.96617802
  Ewald energy   TEWEN  =    137143.22463369
  -Hartree energ DENC   =   -173242.07343078
  -exchange      EXHF   =         0.00000000
  -V(xc)+E(xc)   XCENC  =      1789.20512428
  PAW double counting   =     32310.01086261   -38519.19434489
  entropy T*S    EENTRO =        -0.01902172
  eigenvalues    EBANDS =     -7246.01911805
  atomic energy  EATOM  =     48195.69443388
  ---------------------------------------------------
  free energy    TOTEN  =      1338.79531705 eV

  energy without entropy =     1338.81433877  energy(sigma->0) =     1338.80482791
  exchange ACFDT corr.  =         0.00000000  see jH, gK, PRB 81, 115126


--------------------------------------------------------------------------------------------------------




--------------------------------------- Iteration      1(   2)  ---------------------------------------


    TRIAL :  cpu time      3.2996: real time      3.3005
    CORREC:  cpu time      0.0002: real time      0.0002
    --------------------------------------------
      LOOP:  cpu time      3.3059: real time      3.3132

 eigenvalue-minimisations  :  2304
 total energy-change (2. order) :-0.4301360E+04  (-0.4227667E+04)
 number of electron     458.0000000 magnetization
 augmentation part      458.0000000 magnetization

 DIPCOR: dipole corrections for dipol
 direction  3 min pos     1,
 dipolmoment           0.000000      0.000000     -0.000256 electrons x Angstroem
 Tr[quadrupol]     -6318.706890

 energy correction for charged system         0.000000 eV
 dipol+quadrupol energy correction           -0.000000 eV
 added-field ion interaction          0.002074 eV  (added to PSCEN)


 Free energy of the ion-electron system (eV)
  ---------------------------------------------------
  alpha Z        PSCENC =       907.96617802
  Ewald energy   TEWEN  =    137143.22463369
  -Hartree energ DENC   =   -173242.07343078
  -exchange      EXHF   =         0.00000000
  -V(xc)+E(xc)   XCENC  =      1789.20512428
  PAW double counting   =     32310.01086261   -38519.19434489
  entropy T*S    EENTRO =        -0.00000000
  eigenvalues    EBANDS =    -11547.39859771
  atomic energy  EATOM  =     48195.69443388
  ---------------------------------------------------
  free energy    TOTEN  =     -2962.56514090 eV

  energy without entropy =    -2962.56514090  energy(sigma->0) =    -2962.56514090
  exchange ACFDT corr.  =         0.00000000  see jH, gK, PRB 81, 115126


--------------------------------------------------------------------------------------------------------




--------------------------------------- Iteration      1(   3)  ---------------------------------------


    TRIAL :  cpu time      3.4775: real time      3.4789
    CORREC:  cpu time      0.0002: real time      0.0002
    --------------------------------------------
      LOOP:  cpu time      3.4903: real time      3.4919

 eigenvalue-minimisations  :  2304
 total energy-change (2. order) :-0.3157455E+03  (-0.3136103E+03)
 number of electron     458.0000000 magnetization
 augmentation part      458.0000000 magnetization

 DIPCOR: dipole corrections for dipol
 direction  3 min pos     1,
 dipolmoment           0.000000      0.000000     -0.000256 electrons x Angstroem
 Tr[quadrupol]     -6318.706890

 energy correction for charged system         0.000000 eV
 dipol+quadrupol energy correction           -0.000000 eV
 added-field ion interaction          0.002074 eV  (added to PSCEN)


 Free energy of the ion-electron system (eV)
  ---------------------------------------------------
  alpha Z        PSCENC =       907.96617802
  Ewald energy   TEWEN  =    137143.22463369
  -Hartree energ DENC   =   -173242.07343078
  -exchange      EXHF   =         0.00000000
  -V(xc)+E(xc)   XCENC  =      1789.20512428
  PAW double counting   =     32310.01086261   -38519.19434489
  entropy T*S    EENTRO =        -0.00000000
  eigenvalues    EBANDS =    -11863.14412923
  atomic energy  EATOM  =     48195.69443388
  ---------------------------------------------------
  free energy    TOTEN  =     -3278.31067242 eV

  energy without entropy =    -3278.31067242  energy(sigma->0) =    -3278.31067242
  exchange ACFDT corr.  =         0.00000000  see jH, gK, PRB 81, 115126


--------------------------------------------------------------------------------------------------------




--------------------------------------- Iteration      1(   4)  ---------------------------------------


    TRIAL :  cpu time      3.7396: real time      3.7412
    CORREC:  cpu time      0.0002: real time      0.0002
    --------------------------------------------
      LOOP:  cpu time      3.9474: real time      4.0463

 eigenvalue-minimisations  :  2432
 total energy-change (2. order) :-0.6152387E+01  (-0.6145895E+01)
 number of electron     458.0000000 magnetization
 augmentation part      458.0000000 magnetization

 DIPCOR: dipole corrections for dipol
 direction  3 min pos     1,
 dipolmoment           0.000000      0.000000     -0.000256 electrons x Angstroem
 Tr[quadrupol]     -6318.706890

 energy correction for charged system         0.000000 eV
 dipol+quadrupol energy correction           -0.000000 eV
 added-field ion interaction          0.002074 eV  (added to PSCEN)


 Free energy of the ion-electron system (eV)
  ---------------------------------------------------
  alpha Z        PSCENC =       907.96617802
  Ewald energy   TEWEN  =    137143.22463369
  -Hartree energ DENC   =   -173242.07343078
  -exchange      EXHF   =         0.00000000
  -V(xc)+E(xc)   XCENC  =      1789.20512428
  PAW double counting   =     32310.01086261   -38519.19434489
  entropy T*S    EENTRO =        -0.00000000
  eigenvalues    EBANDS =    -11869.29651635
  atomic energy  EATOM  =     48195.69443388
  ---------------------------------------------------
  free energy    TOTEN  =     -3284.46305954 eV

  energy without entropy =    -3284.46305954  energy(sigma->0) =    -3284.46305954
  exchange ACFDT corr.  =         0.00000000  see jH, gK, PRB 81, 115126


--------------------------------------------------------------------------------------------------------




--------------------------------------- Iteration      1(   5)  ---------------------------------------


    POTLOK:  cpu time      0.1692: real time      0.1692
    SETDIJ:  cpu time      0.5235: real time      0.5235
    TRIAL :  cpu time     99.5704: real time     99.6285
    CORREC:  cpu time      0.0002: real time      0.0002
    CHARGE:  cpu time      0.1607: real time      0.1609
    --------------------------------------------
      LOOP:  cpu time    100.4366: real time    100.4951

 eigenvalue-minimisations  :  2304
 total energy-change (2. order) : 0.2747915E+04  (-0.1458347E+01)
 number of electron     457.9999541 magnetization
 augmentation part      160.7598317 magnetization

 DIPCOR: dipole corrections for dipol
 direction  3 min pos     1,
 dipolmoment           0.000000      0.000000     -0.000256 electrons x Angstroem
 Tr[quadrupol]     -6318.706890

 energy correction for charged system         0.000000 eV
 dipol+quadrupol energy correction           -0.000000 eV
 added-field ion interaction          0.002074 eV  (added to PSCEN)


 Free energy of the ion-electron system (eV)
  ---------------------------------------------------
  alpha Z        PSCENC =       907.96617802
  Ewald energy   TEWEN  =    137143.22463369
  -Hartree energ DENC   =   -173242.07343078
  -exchange      EXHF   =      1361.74690933
  -V(xc)+E(xc)   XCENC  =      1423.10923866
  PAW double counting   =     32649.43877705   -36331.98648824
  entropy T*S    EENTRO =        -0.00000000
  eigenvalues    EBANDS =    -12643.66851050
  atomic energy  EATOM  =     48195.69443388
  ---------------------------------------------------
  free energy    TOTEN  =      -536.54825888 eV

  energy without entropy =     -536.54825888  energy(sigma->0) =     -536.54825888
  exchange ACFDT corr.  =         0.00000000  see jH, gK, PRB 81, 115126


--------------------------------------------------------------------------------------------------------




--------------------------------------- Iteration      1(   6)  ---------------------------------------


    POTLOK:  cpu time      0.1605: real time      0.1605
    SETDIJ:  cpu time      0.5153: real time      0.5158
    TRIAL :  cpu time     97.4223: real time     97.4887
    CORREC:  cpu time     97.6612: real time     97.7372
    CHARGE:  cpu time      0.1269: real time      0.1269
    --------------------------------------------
      LOOP:  cpu time    195.8994: real time    196.0425

 eigenvalue-minimisations  :     0
 total energy-change (2. order) : 0.2291911E+03  (-0.1219634E+03)
 number of electron     457.9999549 magnetization
 augmentation part      157.2263548 magnetization

 DIPCOR: dipole corrections for dipol
 direction  3 min pos     1,
 dipolmoment           0.000000      0.000000      0.319558 electrons x Angstroem
 Tr[quadrupol]     -6350.124911

 energy correction for charged system         0.000000 eV
 dipol+quadrupol energy correction           -0.006079 eV
 added-field ion interaction         -2.587511 eV  (added to PSCEN)


 Free energy of the ion-electron system (eV)
  ---------------------------------------------------
  alpha Z        PSCENC =       903.34402857
  Ewald energy   TEWEN  =    137143.22463369
  -Hartree energ DENC   =   -177326.29821767
  -exchange      EXHF   =      1369.22613790
  -V(xc)+E(xc)   XCENC  =      1540.75413443
  PAW double counting   =     37768.23378999   -41412.05175066
  entropy T*S    EENTRO =        -0.00000000
  eigenvalues    EBANDS =     -8489.48435155
  atomic energy  EATOM  =     48195.69443388
  ---------------------------------------------------
  free energy    TOTEN  =      -307.35716142 eV

  energy without entropy =     -307.35716142  energy(sigma->0) =     -307.35716142
  exchange ACFDT corr.  =         0.00000000  see jH, gK, PRB 81, 115126


--------------------------------------------------------------------------------------------------------




--------------------------------------- Iteration      1(   7)  ---------------------------------------


    POTLOK:  cpu time      0.1877: real time      0.1882
    SETDIJ:  cpu time      0.5164: real time      0.5164
    TRIAL :  cpu time     96.5881: real time     96.6590
    CORREC:  cpu time     96.5885: real time     96.6646
    CHARGE:  cpu time      0.1275: real time      0.1275
    --------------------------------------------
      LOOP:  cpu time    194.2627: real time    194.5288

 eigenvalue-minimisations  :     0
 total energy-change (2. order) :-0.1226960E+03  (-0.9946455E+01)
 number of electron     457.9999554 magnetization
 augmentation part      155.2709861 magnetization

 DIPCOR: dipole corrections for dipol
 direction  3 min pos     1,
 dipolmoment           0.000000      0.000000      0.255210 electrons x Angstroem
 Tr[quadrupol]     -6360.683096

 energy correction for charged system         0.000000 eV
 dipol+quadrupol energy correction           -0.003877 eV
 added-field ion interaction         -2.066480 eV  (added to PSCEN)


 Free energy of the ion-electron system (eV)
  ---------------------------------------------------
  alpha Z        PSCENC =       905.08003562
  Ewald energy   TEWEN  =    137143.22463369
  -Hartree energ DENC   =   -175259.52758036
  -exchange      EXHF   =      1315.47191224
  -V(xc)+E(xc)   XCENC  =      1475.39686813
  PAW double counting   =     36492.75647802   -40192.01594731
  entropy T*S    EENTRO =        -0.00000000
  eigenvalues    EBANDS =    -10506.13395118
  atomic energy  EATOM  =     48195.69443388
  ---------------------------------------------------
  free energy    TOTEN  =      -430.05311728 eV

  energy without entropy =     -430.05311728  energy(sigma->0) =     -430.05311728
  exchange ACFDT corr.  =         0.00000000  see jH, gK, PRB 81, 115126


--------------------------------------------------------------------------------------------------------




--------------------------------------- Iteration      1(   8)  ---------------------------------------


    POTLOK:  cpu time      0.1700: real time      0.1700
    SETDIJ:  cpu time      0.5156: real time      0.5156
    TRIAL :  cpu time     97.6587: real time     97.7302
    CORREC:  cpu time     96.8268: real time     96.8945
    CHARGE:  cpu time      0.1256: real time      0.1256
    --------------------------------------------
      LOOP:  cpu time    195.3102: real time    195.4498

 eigenvalue-minimisations  :     0
 total energy-change (2. order) :-0.1000468E+02  (-0.6651019E+01)
 number of electron     457.9999553 magnetization
 augmentation part      155.3716466 magnetization

 DIPCOR: dipole corrections for dipol
 direction  3 min pos     1,
 dipolmoment           0.000000      0.000000      0.139073 electrons x Angstroem
 Tr[quadrupol]     -6361.622859

 energy correction for charged system         0.000000 eV
 dipol+quadrupol energy correction           -0.001151 eV
 added-field ion interaction         -1.126096 eV  (added to PSCEN)


 Free energy of the ion-electron system (eV)
  ---------------------------------------------------
  alpha Z        PSCENC =       906.25428984
  Ewald energy   TEWEN  =    137143.22463369
  -Hartree energ DENC   =   -175303.00817636
  -exchange      EXHF   =      1309.27831117
  -V(xc)+E(xc)   XCENC  =      1466.87304904
  PAW double counting   =     36398.97307818   -40036.20976418
  entropy T*S    EENTRO =        -0.00000000
  eigenvalues    EBANDS =    -10521.13764993
  atomic energy  EATOM  =     48195.69443388
  ---------------------------------------------------
  free energy    TOTEN  =      -440.05779468 eV

  energy without entropy =     -440.05779468  energy(sigma->0) =     -440.05779468
  exchange ACFDT corr.  =        -0.00000000  see jH, gK, PRB 81, 115126


--------------------------------------------------------------------------------------------------------




--------------------------------------- Iteration      1(   9)  ---------------------------------------


    POTLOK:  cpu time      0.1729: real time      0.1729
    SETDIJ:  cpu time      0.5160: real time      0.5164
    TRIAL :  cpu time     96.0934: real time     96.1628
    CORREC:  cpu time     97.7864: real time     97.8465
    CHARGE:  cpu time      0.1285: real time      0.1285
    --------------------------------------------
      LOOP:  cpu time    194.7111: real time    194.8415

 eigenvalue-minimisations  :     0
 total energy-change (2. order) :-0.6500935E+01  (-0.3037195E+01)
 number of electron     457.9999553 magnetization
 augmentation part      155.3139992 magnetization

 DIPCOR: dipole corrections for dipol
 direction  3 min pos     1,
 dipolmoment           0.000000      0.000000      0.086292 electrons x Angstroem
 Tr[quadrupol]     -6353.637276

 energy correction for charged system         0.000000 eV
 dipol+quadrupol energy correction           -0.000443 eV
 added-field ion interaction         -0.698720 eV  (added to PSCEN)


 Free energy of the ion-electron system (eV)
  ---------------------------------------------------
  alpha Z        PSCENC =       907.18697633
  Ewald energy   TEWEN  =    137143.22463369
  -Hartree energ DENC   =   -175193.55238988
  -exchange      EXHF   =      1306.46156734
  -V(xc)+E(xc)   XCENC  =      1465.02389105
  PAW double counting   =     36282.47821965   -39960.16250344
  entropy T*S    EENTRO =        -0.00000000
  eigenvalues    EBANDS =    -10592.91355848
  atomic energy  EATOM  =     48195.69443388
  ---------------------------------------------------
  free energy    TOTEN  =      -446.55872984 eV

  energy without entropy =     -446.55872984  energy(sigma->0) =     -446.55872984
  exchange ACFDT corr.  =         0.00000000  see jH, gK, PRB 81, 115126


--------------------------------------------------------------------------------------------------------




--------------------------------------- Iteration      1(  10)  ---------------------------------------


    POTLOK:  cpu time      0.1748: real time      0.1748
    SETDIJ:  cpu time      0.6256: real time      0.6259
    TRIAL :  cpu time     96.5842: real time     96.6134
    CORREC:  cpu time     97.1791: real time     97.2216
    CHARGE:  cpu time      0.1256: real time      0.1256
    --------------------------------------------
      LOOP:  cpu time    194.7081: real time    194.7804

 eigenvalue-minimisations  :     0
 total energy-change (2. order) :-0.3073462E+01  (-0.1055835E+01)
 number of electron     457.9999554 magnetization
 augmentation part      155.1914460 magnetization

 DIPCOR: dipole corrections for dipol
 direction  3 min pos     1,
 dipolmoment           0.000000      0.000000      0.122059 electrons x Angstroem
 Tr[quadrupol]     -6351.405672

 energy correction for charged system         0.000000 eV
 dipol+quadrupol energy correction           -0.000887 eV
 added-field ion interaction         -0.988333 eV  (added to PSCEN)


 Free energy of the ion-electron system (eV)
  ---------------------------------------------------
  alpha Z        PSCENC =       907.25384847
  Ewald energy   TEWEN  =    137143.22463369
  -Hartree energ DENC   =   -174973.70185253
  -exchange      EXHF   =      1303.34985161
  -V(xc)+E(xc)   XCENC  =      1462.57705659
  PAW double counting   =     36134.05475366   -39819.01051349
  entropy T*S    EENTRO =        -0.00000000
  eigenvalues    EBANDS =    -10803.07440417
  atomic energy  EATOM  =     48195.69443388
  ---------------------------------------------------
  free energy    TOTEN  =      -449.63219227 eV

  energy without entropy =     -449.63219227  energy(sigma->0) =     -449.63219227
  exchange ACFDT corr.  =        -0.00000000  see jH, gK, PRB 81, 115126


--------------------------------------------------------------------------------------------------------




--------------------------------------- Iteration      1(  11)  ---------------------------------------


    POTLOK:  cpu time      0.1887: real time      0.1887
    SETDIJ:  cpu time      0.5162: real time      0.5161
    TRIAL :  cpu time     96.6462: real time     96.7091
    CORREC:  cpu time     97.6507: real time     97.7449
    CHARGE:  cpu time      0.1256: real time      0.1256
    --------------------------------------------
      LOOP:  cpu time    195.1409: real time    195.2983

 eigenvalue-minimisations  :     0
 total energy-change (2. order) :-0.1059432E+01  (-0.4288278E+00)
 number of electron     457.9999554 magnetization
 augmentation part      155.3189405 magnetization

 DIPCOR: dipole corrections for dipol
 direction  3 min pos     1,
 dipolmoment           0.000000      0.000000      0.142934 electrons x Angstroem
 Tr[quadrupol]     -6352.012747

 energy correction for charged system         0.000000 eV
 dipol+quadrupol energy correction           -0.001216 eV
 added-field ion interaction         -1.157356 eV  (added to PSCEN)


 Free energy of the ion-electron system (eV)
  ---------------------------------------------------
  alpha Z        PSCENC =       907.03288265
  Ewald energy   TEWEN  =    137143.22463369
  -Hartree energ DENC   =   -174864.20475529
  -exchange      EXHF   =      1301.84842709
  -V(xc)+E(xc)   XCENC  =      1461.31683536
  PAW double counting   =     36053.98890628   -39726.96843557
  entropy T*S    EENTRO =        -0.00000000
  eigenvalues    EBANDS =    -10922.62455246
  atomic energy  EATOM  =     48195.69443388
  ---------------------------------------------------
  free energy    TOTEN  =      -450.69162435 eV

  energy without entropy =     -450.69162435  energy(sigma->0) =     -450.69162435
  exchange ACFDT corr.  =        -0.00000000  see jH, gK, PRB 81, 115126


--------------------------------------------------------------------------------------------------------




--------------------------------------- Iteration      1(  12)  ---------------------------------------


    POTLOK:  cpu time      0.1763: real time      0.1764
    SETDIJ:  cpu time      0.5162: real time      0.5166
    TRIAL :  cpu time     96.5740: real time     96.6649
    CORREC:  cpu time     96.1267: real time     96.2066
    CHARGE:  cpu time      0.1269: real time      0.1269
    --------------------------------------------
      LOOP:  cpu time    193.5344: real time    193.7059

 eigenvalue-minimisations  :     0
 total energy-change (2. order) :-0.4288198E+00  (-0.1772299E+00)
 number of electron     457.9999553 magnetization
 augmentation part      155.5173208 magnetization

 DIPCOR: dipole corrections for dipol
 direction  3 min pos     1,
 dipolmoment           0.000000      0.000000      0.156210 electrons x Angstroem
 Tr[quadrupol]     -6352.735761

 energy correction for charged system         0.000000 eV
 dipol+quadrupol energy correction           -0.001453 eV
 added-field ion interaction         -1.264860 eV  (added to PSCEN)


 Free energy of the ion-electron system (eV)
  ---------------------------------------------------
  alpha Z        PSCENC =       906.80603349
  Ewald energy   TEWEN  =    137143.22463369
  -Hartree energ DENC   =   -174867.60828097
  -exchange      EXHF   =      1301.87130311
  -V(xc)+E(xc)   XCENC  =      1461.71269358
  PAW double counting   =     36033.52199177   -39704.15038320
  entropy T*S    EENTRO =        -0.00000000
  eigenvalues    EBANDS =    -10922.19286951
  atomic energy  EATOM  =     48195.69443388
  ---------------------------------------------------
  free energy    TOTEN  =      -451.12044415 eV

  energy without entropy =     -451.12044415  energy(sigma->0) =     -451.12044415
  exchange ACFDT corr.  =         0.00000000  see jH, gK, PRB 81, 115126


--------------------------------------------------------------------------------------------------------




--------------------------------------- Iteration      1(  13)  ---------------------------------------


    POTLOK:  cpu time      0.1778: real time      0.1778
    SETDIJ:  cpu time      0.5167: real time      0.5168
    TRIAL :  cpu time     96.1762: real time     96.2317
    CORREC:  cpu time     96.8930: real time     96.9455
    CHARGE:  cpu time      0.1297: real time      0.1297
    --------------------------------------------
      LOOP:  cpu time    193.9084: real time    194.0167

 eigenvalue-minimisations  :     0
 total energy-change (2. order) :-0.1772331E+00  (-0.8569614E-01)
 number of electron     457.9999553 magnetization
 augmentation part      155.6172864 magnetization

 DIPCOR: dipole corrections for dipol
 direction  3 min pos     1,
 dipolmoment           0.000000      0.000000      0.157606 electrons x Angstroem
 Tr[quadrupol]     -6353.255428

 energy correction for charged system         0.000000 eV
 dipol+quadrupol energy correction           -0.001479 eV
 added-field ion interaction         -1.276161 eV  (added to PSCEN)


 Free energy of the ion-electron system (eV)
  ---------------------------------------------------
  alpha Z        PSCENC =       906.69744234
  Ewald energy   TEWEN  =    137143.22463369
  -Hartree energ DENC   =   -174909.25251407
  -exchange      EXHF   =      1302.38617335
  -V(xc)+E(xc)   XCENC  =      1462.54833271
  PAW double counting   =     36040.77641556   -39715.98658551
  entropy T*S    EENTRO =        -0.00000000
  eigenvalues    EBANDS =    -10877.38600923
  atomic energy  EATOM  =     48195.69443388
  ---------------------------------------------------
  free energy    TOTEN  =      -451.29767727 eV

  energy without entropy =     -451.29767727  energy(sigma->0) =     -451.29767727
  exchange ACFDT corr.  =         0.00000000  see jH, gK, PRB 81, 115126


--------------------------------------------------------------------------------------------------------




--------------------------------------- Iteration      1(  14)  ---------------------------------------


    POTLOK:  cpu time      0.1786: real time      0.1786
    SETDIJ:  cpu time      0.5270: real time      0.5270
    TRIAL :  cpu time     96.5136: real time     96.5779
    CORREC:  cpu time     96.3113: real time     96.3770
    CHARGE:  cpu time      0.1275: real time      0.1281
    --------------------------------------------
      LOOP:  cpu time    193.6718: real time    193.8024

 eigenvalue-minimisations  :     0
 total energy-change (2. order) :-0.8574137E-01  (-0.4652844E-01)
 number of electron     457.9999553 magnetization
 augmentation part      155.6018929 magnetization

 DIPCOR: dipole corrections for dipol
 direction  3 min pos     1,
 dipolmoment           0.000000      0.000000      0.156273 electrons x Angstroem
 Tr[quadrupol]     -6353.593917

 energy correction for charged system         0.000000 eV
 dipol+quadrupol energy correction           -0.001454 eV
 added-field ion interaction         -1.265368 eV  (added to PSCEN)


 Free energy of the ion-electron system (eV)
  ---------------------------------------------------
  alpha Z        PSCENC =       906.68459844
  Ewald energy   TEWEN  =    137143.22463369
  -Hartree energ DENC   =   -174936.75934093
  -exchange      EXHF   =      1302.71486484
  -V(xc)+E(xc)   XCENC  =      1462.98965368
  PAW double counting   =     36051.97582989   -39730.01482456
  entropy T*S    EENTRO =        -0.00000000
  eigenvalues    EBANDS =    -10847.89326759
  atomic energy  EATOM  =     48195.69443388
  ---------------------------------------------------
  free energy    TOTEN  =      -451.38341864 eV

  energy without entropy =     -451.38341864  energy(sigma->0) =     -451.38341864
  exchange ACFDT corr.  =         0.00000000  see jH, gK, PRB 81, 115126


--------------------------------------------------------------------------------------------------------




--------------------------------------- Iteration      1(  15)  ---------------------------------------


    POTLOK:  cpu time      0.1776: real time      0.1776
    SETDIJ:  cpu time      0.5173: real time      0.5174
    TRIAL :  cpu time     96.6722: real time     96.7378
    CORREC:  cpu time     96.7349: real time     96.8061
    CHARGE:  cpu time      0.1278: real time      0.1278
    --------------------------------------------
      LOOP:  cpu time    194.2493: real time    194.3866

 eigenvalue-minimisations  :     0
 total energy-change (2. order) :-0.4656203E-01  (-0.2174244E-01)
 number of electron     457.9999553 magnetization
 augmentation part      155.5629068 magnetization

 DIPCOR: dipole corrections for dipol
 direction  3 min pos     1,
 dipolmoment           0.000000      0.000000      0.156294 electrons x Angstroem
 Tr[quadrupol]     -6353.806045

 energy correction for charged system         0.000000 eV
 dipol+quadrupol energy correction           -0.001454 eV
 added-field ion interaction         -1.265534 eV  (added to PSCEN)


 Free energy of the ion-electron system (eV)
  ---------------------------------------------------
  alpha Z        PSCENC =       906.69917087
  Ewald energy   TEWEN  =    137143.22463369
  -Hartree energ DENC   =   -174944.19938145
  -exchange      EXHF   =      1302.75682112
  -V(xc)+E(xc)   XCENC  =      1462.95829991
  PAW double counting   =     36057.68983892   -39734.86743374
  entropy T*S    EENTRO =        -0.00000000
  eigenvalues    EBANDS =    -10841.38636388
  atomic energy  EATOM  =     48195.69443388
  ---------------------------------------------------
  free energy    TOTEN  =      -451.42998066 eV

  energy without entropy =     -451.42998066  energy(sigma->0) =     -451.42998066
  exchange ACFDT corr.  =        -0.00000000  see jH, gK, PRB 81, 115126


--------------------------------------------------------------------------------------------------------




--------------------------------------- Iteration      1(  16)  ---------------------------------------


    POTLOK:  cpu time      0.1776: real time      0.1776
    SETDIJ:  cpu time      0.5164: real time      0.5168
    TRIAL :  cpu time     96.8625: real time     96.9276
    CORREC:  cpu time     97.6864: real time     97.7524
    CHARGE:  cpu time      0.1497: real time      0.1497
    --------------------------------------------
      LOOP:  cpu time    195.4059: real time    195.5377

 eigenvalue-minimisations  :     0
 total energy-change (2. order) :-0.2175267E-01  (-0.1087048E-01)
 number of electron     457.9999553 magnetization
 augmentation part      155.5492346 magnetization

 DIPCOR: dipole corrections for dipol
 direction  3 min pos     1,
 dipolmoment           0.000000      0.000000      0.157154 electrons x Angstroem
 Tr[quadrupol]     -6353.987259

 energy correction for charged system         0.000000 eV
 dipol+quadrupol energy correction           -0.001470 eV
 added-field ion interaction         -1.272504 eV  (added to PSCEN)


 Free energy of the ion-electron system (eV)
  ---------------------------------------------------
  alpha Z        PSCENC =       906.69700442
  Ewald energy   TEWEN  =    137143.22463369
  -Hartree energ DENC   =   -174947.86029266
  -exchange      EXHF   =      1302.78165219
  -V(xc)+E(xc)   XCENC  =      1462.88193364
  PAW double counting   =     36060.92052648   -39736.71325939
  entropy T*S    EENTRO =        -0.00000000
  eigenvalues    EBANDS =    -10839.07836559
  atomic energy  EATOM  =     48195.69443388
  ---------------------------------------------------
  free energy    TOTEN  =      -451.45173334 eV

  energy without entropy =     -451.45173334  energy(sigma->0) =     -451.45173334
  exchange ACFDT corr.  =         0.00000000  see jH, gK, PRB 81, 115126


--------------------------------------------------------------------------------------------------------




--------------------------------------- Iteration      1(  17)  ---------------------------------------


    POTLOK:  cpu time      0.1758: real time      0.1763
    SETDIJ:  cpu time      0.5171: real time      0.5171
    TRIAL :  cpu time     96.1517: real time     96.2191
    CORREC:  cpu time     96.7784: real time     96.8398
    CHARGE:  cpu time      0.1585: real time      0.1585
    --------------------------------------------
      LOOP:  cpu time    193.7951: real time    193.9248

 eigenvalue-minimisations  :     0
 total energy-change (2. order) :-0.1087073E-01  (-0.4649998E-02)
 number of electron     457.9999553 magnetization
 augmentation part      155.5521520 magnetization

 DIPCOR: dipole corrections for dipol
 direction  3 min pos     1,
 dipolmoment           0.000000      0.000000      0.157533 electrons x Angstroem
 Tr[quadrupol]     -6354.098078

 energy correction for charged system         0.000000 eV
 dipol+quadrupol energy correction           -0.001477 eV
 added-field ion interaction         -1.275570 eV  (added to PSCEN)


 Free energy of the ion-electron system (eV)
  ---------------------------------------------------
  alpha Z        PSCENC =       906.68962832
  Ewald energy   TEWEN  =    137143.22463369
  -Hartree energ DENC   =   -174954.09660821
  -exchange      EXHF   =      1302.89188153
  -V(xc)+E(xc)   XCENC  =      1462.93654687
  PAW double counting   =     36064.95524580   -39740.51098391
  entropy T*S    EENTRO =        -0.00000000
  eigenvalues    EBANDS =    -10833.24738204
[...]
    295       9.5887      0.00000
    296       9.6131      0.00000
    297       9.6190      0.00000
    298       9.6528      0.00000
    299       9.6757      0.00000
    300       9.7753      0.00000
    301       9.9742      0.00000
    302       9.9924      0.00000
    303      10.0553      0.00000
    304      10.0577      0.00000
    305      10.3124      0.00000
    306      10.3505      0.00000
    307      10.3830      0.00000
    308      10.4625      0.00000
    309      10.4719      0.00000
    310      10.5673      0.00000
    311      10.6052      0.00000
    312      10.6600      0.00000
    313      10.8028      0.00000
    314      10.8154      0.00000
    315      10.9452      0.00000
    316      10.9575      0.00000
    317      11.4261      0.00000
    318      11.4643      0.00000
    319      11.6113      0.00000
    320      11.6561      0.00000


--------------------------------------------------------------------------------------------------------


 soft charge-density along one line, spin component           1
         0         1         2         3         4         5         6         7         8         9
 total charge-density along one line

 pseudopotential strength for first ion, spin component:           1
  9.987  13.276   0.000   0.018   0.000  -0.000  -0.058  -0.000
 13.276  17.648   0.000   0.023   0.000  -0.000  -0.075  -0.000
  0.000   0.000  -4.320  -0.000  -0.000   8.485   0.000   0.000
  0.018   0.023  -0.000  -4.277  -0.000   0.000   8.374   0.000
  0.000   0.000  -0.000  -0.000  -4.320   0.000   0.000   8.485
 -0.000  -0.000   8.485   0.000   0.000 -18.790  -0.000  -0.000
 -0.058  -0.075   0.000   8.374   0.000  -0.000 -18.518  -0.000
 -0.000  -0.000   0.000   0.000   8.485  -0.000  -0.000 -18.790
 total augmentation occupancy for first ion, spin component:           1
  6.872  -3.094   0.000   2.068   0.000   0.000   0.372   0.000
 -3.094   1.814   0.000  -1.588   0.000   0.000  -0.222   0.000
  0.000   0.000   0.806  -0.000   0.000   0.059   0.000   0.000
  2.068  -1.588  -0.000   2.241   0.000   0.000   0.205   0.000
  0.000   0.000   0.000   0.000   0.806   0.000   0.000   0.059
  0.000   0.000   0.059   0.000   0.000   0.004   0.000   0.000
  0.372  -0.222   0.000   0.205   0.000   0.000   0.028   0.000
  0.000   0.000   0.000   0.000   0.059   0.000   0.000   0.004


------------------------ aborting loop because EDIFF is reached ----------------------------------------


    FORLOC:  cpu time      0.0065: real time      0.0065
    FORHF :  cpu time    100.2559: real time    100.3154
    FORNL :  cpu time      0.3461: real time      0.3463
    STRESS:  cpu time      1.1660: real time      1.1668
    FORCOR:  cpu time      0.1532: real time      0.1532
    OFIELD:  cpu time      0.0005: real time      0.0005

  DFT-D2 method for vdW energy calculation
  -------------------------------------------------------------------

  Parameters of vdW forcefield:
         C6(Jnm^6/mol)     R0(A)
   -----------------------------
   C        1.750          1.452
   O        0.700          1.342
   Mg       0.630          1.243
   O        0.700          1.342

  vdW correction parametrized for the method          

  IVDW =   1
  VDW_RADIUS =    50.000 A
  VDW_S6 =     1.050
  VDW_SR =     1.000
  VDW_D =    20.000
  LVDW_EWALD = F

  Number of pair interactions contributing to vdW energy:  768278
  Edisp (eV):   -5.17174
    FORVDW:  cpu time      0.2043: real time      0.2043

  FORCE on cell =-STRESS in cart. coord.  units (eV):
  Direction    XX          YY          ZZ          XY          YZ          ZX
  --------------------------------------------------------------------------------------
  Alpha Z   907.96410   907.96410   907.96410
  Ewald  157644.15472157644.15472************     0.00000     0.00000    -0.00000
  Hartree168105.76345168105.76345************    -0.00000    -0.00000    -0.00000
  E(xc)   -2036.50979 -2036.50979 -2038.54026    -0.00000     0.00000    -0.00000
  Local  ************************335314.28543     0.00000    -0.00000    -0.00000
  n-local -1185.85061 -1186.31669 -1217.89797    -0.00002    -0.00001    -0.00000
  augment   903.16359   903.16359   892.35024    -0.00000    -0.00000    -0.00000
  Kinetic  7522.87465  7524.68551  7543.96554     0.00001    -0.00001    -0.00000
  Fock    -2007.81771 -2007.90023 -2007.06493     0.00000     0.00000     0.00000
  vdW        -7.53002    -7.53002    -6.23495    -0.00000     0.00000     0.00000
  -------------------------------------------------------------------------------------
  Total     -38.79541   -38.79541   -12.07094     0.00000     0.00000     0.00000
  in kB     -40.89769   -40.89769   -12.72505     0.00000     0.00000     0.00000
  external pressure =      -31.51 kB  Pullay stress =        0.00 kB


 VOLUME and BASIS-vectors are now :
 -----------------------------------------------------------------------------
  energy-cutoff  :      600.00
  volume of cell :     1519.82
      direct lattice vectors                 reciprocal lattice vectors
     8.440984654  0.000000000  0.000000000     0.118469591  0.000000000  0.000000000
     0.000000000  8.440984654  0.000000000     0.000000000  0.118469591  0.000000000
     0.000000000  0.000000000 21.330738491     0.000000000  0.000000000  0.046880702

  length of vectors
     8.440984654  8.440984654 21.330738491     0.118469591  0.118469591  0.046880702


 FORCES acting on ions:
    Electron-Ion                     Ewald-Force                    Non-Local-Force
 -----------------------------------------------------------------------------------------------
   0.112E-12 0.653E-12 -.837E+03   0.144E-13 0.533E-14 0.811E+03   0.000E+00 0.000E+00 0.268E+02
   0.438E-12 0.127E-11 -.145E+04   -.422E-14 -.511E-14 0.151E+04   0.000E+00 0.265E-22 -.550E+02
   -.952E-14 -.129E+00 0.208E+04   0.560E-13 0.129E+00 -.207E+04   -.529E-22 0.674E-04 -.639E+01
   0.129E+00 -.202E-12 0.208E+04   -.129E+00 0.671E-13 -.207E+04   -.674E-04 -.529E-22 -.639E+01
   -.430E-13 -.424E-12 0.713E+03   -.150E-10 0.150E-10 -.714E+03   0.000E+00 -.132E-22 0.436E+00
   0.472E+00 -.472E+00 0.714E+03   -.467E+00 0.467E+00 -.715E+03   -.279E-02 0.279E-02 0.459E+00
   -.250E-13 -.285E+01 -.643E+03   0.157E-11 0.283E+01 0.643E+03   0.000E+00 0.196E-01 -.805E-01
   0.285E+01 0.101E-12 -.643E+03   -.283E+01 -.151E-11 0.643E+03   -.196E-01 0.132E-21 -.805E-01
   -.495E-13 -.117E-11 -.200E+04   0.444E-12 -.416E-12 0.200E+04   -.265E-22 0.000E+00 0.530E+01
   0.180E+02 -.180E+02 -.198E+04   -.182E+02 0.182E+02 0.198E+04   0.823E-01 -.823E-01 0.541E+01
   -.204E-13 0.129E+00 0.208E+04   -.277E-12 -.129E+00 -.207E+04   0.265E-22 -.674E-04 -.639E+01
   0.123E+00 0.296E-12 0.208E+04   -.121E+00 0.131E-10 -.207E+04   -.141E-02 0.000E+00 -.639E+01
   -.553E-13 0.431E-12 0.714E+03   -.165E-10 0.000E+00 -.715E+03   0.000E+00 0.000E+00 0.397E+00
   0.472E+00 0.472E+00 0.714E+03   -.467E+00 -.467E+00 -.715E+03   -.279E-02 -.279E-02 0.459E+00
   -.861E-14 0.285E+01 -.643E+03   0.304E-11 -.283E+01 0.643E+03   -.212E-21 -.196E-01 -.805E-01
   0.413E+01 0.229E-12 -.636E+03   -.405E+01 0.178E-14 0.636E+03   -.747E-01 0.794E-22 -.206E+00
   -.489E-13 0.269E-12 -.199E+04   -.355E-13 -.995E-13 0.198E+04   0.000E+00 0.000E+00 0.532E+01
   0.180E+02 0.180E+02 -.198E+04   -.182E+02 -.182E+02 0.198E+04   0.823E-01 0.823E-01 0.541E+01
   0.662E-12 -.123E+00 0.208E+04   -.129E-10 0.121E+00 -.207E+04   0.000E+00 0.141E-02 -.639E+01
   -.129E+00 -.175E-12 0.208E+04   0.129E+00 0.471E-13 -.207E+04   0.674E-04 0.000E+00 -.639E+01
   0.592E-12 0.909E-12 0.714E+03   0.145E-11 0.150E-10 -.715E+03   -.331E-23 -.662E-22 0.397E+00
   -.472E+00 -.472E+00 0.714E+03   0.467E+00 0.467E+00 -.715E+03   0.279E-02 0.279E-02 0.459E+00
   0.612E-12 -.413E+01 -.636E+03   -.141E-11 0.405E+01 0.636E+03   0.139E-21 0.747E-01 -.206E+00
   -.285E+01 0.404E-13 -.643E+03   0.283E+01 -.156E-11 0.643E+03   0.196E-01 -.106E-21 -.805E-01
   0.676E-12 0.458E-12 -.199E+04   0.782E-13 -.355E-14 0.198E+04   0.000E+00 0.000E+00 0.532E+01
   -.180E+02 -.180E+02 -.198E+04   0.182E+02 0.182E+02 0.198E+04   -.823E-01 -.823E-01 0.541E+01
   0.660E-12 0.123E+00 0.208E+04   -.131E-10 -.121E+00 -.207E+04   0.000E+00 -.141E-02 -.639E+01
   -.123E+00 -.251E-11 0.208E+04   0.121E+00 0.131E-10 -.207E+04   0.141E-02 0.000E+00 -.639E+01
   0.637E-12 0.156E-11 0.714E+03   -.782E-13 0.355E-14 -.715E+03   0.000E+00 0.000E+00 0.532E+00
   -.472E+00 0.472E+00 0.714E+03   0.467E+00 -.467E+00 -.715E+03   0.279E-02 -.279E-02 0.459E+00
   0.609E-12 0.413E+01 -.636E+03   -.284E-13 -.405E+01 0.636E+03   0.000E+00 -.747E-01 -.206E+00
   -.413E+01 -.202E-11 -.636E+03   0.405E+01 0.000E+00 0.636E+03   0.747E-01 0.106E-21 -.206E+00
   0.697E-12 0.145E-11 -.191E+04   -.426E-13 -.391E-13 0.191E+04   0.000E+00 0.000E+00 0.368E+01
   -.180E+02 0.180E+02 -.198E+04   0.182E+02 -.182E+02 0.198E+04   -.823E-01 0.823E-01 0.541E+01
   -.205E-13 -.406E+00 0.535E+03   0.409E-13 0.400E+00 -.535E+03   0.132E-22 0.784E-02 -.942E-01
   0.406E+00 0.128E-12 0.535E+03   -.400E+00 0.391E-13 -.535E+03   -.784E-02 0.463E-22 -.942E-01
   -.280E-13 -.795E-12 0.156E+04   0.853E-11 -.844E-11 -.156E+04   -.106E-21 0.000E+00 0.313E+01
   0.940E-01 -.940E-01 0.156E+04   -.931E-01 0.931E-01 -.156E+04   -.103E-02 0.103E-02 0.313E+01
   -.254E-13 -.733E+01 -.152E+04   -.871E-12 0.727E+01 0.153E+04   -.132E-21 0.546E-01 -.458E+01
   0.733E+01 0.673E-12 -.152E+04   -.727E+01 0.881E-12 0.153E+04   -.546E-01 0.000E+00 -.458E+01
   -.281E-13 0.471E-13 -.478E+03   -.853E-13 0.639E-13 0.478E+03   0.265E-22 0.000E+00 0.260E+00
   0.257E+01 -.257E+01 -.473E+03   -.256E+01 0.256E+01 0.473E+03   -.930E-02 0.930E-02 0.320E+00
   -.257E-14 0.406E+00 0.535E+03   0.142E-13 -.400E+00 -.535E+03   0.000E+00 -.784E-02 -.942E-01
   0.377E+00 0.391E-12 0.535E+03   -.406E+00 -.764E-11 -.535E+03   0.343E-01 0.106E-21 -.114E+00
   -.224E-13 -.283E-12 0.156E+04   0.845E-11 -.796E-12 -.156E+04   0.000E+00 -.159E-21 0.313E+01
   0.940E-01 0.940E-01 0.156E+04   -.931E-01 -.931E-01 -.156E+04   -.103E-02 -.103E-02 0.313E+01
   -.336E-13 0.733E+01 -.152E+04   -.774E-12 -.727E+01 0.153E+04   0.000E+00 -.546E-01 -.458E+01
   0.236E+02 0.202E-12 -.149E+04   -.233E+02 0.810E-11 0.150E+04   -.279E+00 -.106E-21 -.454E+01
   -.234E-13 0.125E-11 -.473E+03   -.741E-11 0.711E-14 0.473E+03   0.000E+00 0.265E-22 0.274E+00
   0.257E+01 0.257E+01 -.473E+03   -.256E+01 -.256E+01 0.473E+03   -.930E-02 -.930E-02 0.320E+00
   0.303E-12 -.377E+00 0.535E+03   0.764E-11 0.406E+00 -.535E+03   0.000E+00 -.343E-01 -.114E+00
   -.406E+00 0.976E-13 0.535E+03   0.400E+00 0.142E-13 -.535E+03   0.784E-02 0.000E+00 -.942E-01
   0.343E-12 -.444E-12 0.156E+04   0.845E-12 -.846E-11 -.156E+04   -.106E-21 -.205E-21 0.313E+01
   -.940E-01 -.940E-01 0.156E+04   0.931E-01 0.931E-01 -.156E+04   0.103E-02 0.103E-02 0.313E+01
   0.340E-12 -.236E+02 -.149E+04   -.816E-11 0.233E+02 0.150E+04   -.331E-22 0.279E+00 -.454E+01
   -.733E+01 0.687E-12 -.152E+04   0.727E+01 0.924E-12 0.153E+04   0.546E-01 -.139E-21 -.458E+01
   0.268E-12 0.132E-11 -.473E+03   -.711E-14 0.738E-11 0.473E+03   0.000E+00 0.000E+00 0.274E+00
   -.257E+01 -.257E+01 -.473E+03   0.256E+01 0.256E+01 0.473E+03   0.930E-02 0.930E-02 0.320E+00
   0.287E-12 0.377E+00 0.535E+03   0.763E-11 -.406E+00 -.535E+03   0.106E-21 0.343E-01 -.114E+00
   -.377E+00 -.223E-11 0.535E+03   0.406E+00 -.769E-11 -.535E+03   -.343E-01 -.106E-21 -.114E+00
   0.327E-12 0.970E-12 0.156E+04   0.824E-12 -.838E-12 -.156E+04   0.000E+00 0.000E+00 0.312E+01
   -.940E-01 0.940E-01 0.156E+04   0.931E-01 -.931E-01 -.156E+04   0.103E-02 -.103E-02 0.313E+01
   0.329E-12 0.236E+02 -.149E+04   -.820E-11 -.233E+02 0.150E+04   0.000E+00 -.279E+00 -.454E+01
   -.236E+02 0.187E-11 -.149E+04   0.233E+02 0.819E-11 0.150E+04   0.279E+00 -.265E-22 -.454E+01
   0.274E-12 -.296E-12 -.473E+03   -.497E-13 0.426E-13 0.473E+03   0.662E-23 0.000E+00 -.164E+00
   -.257E+01 0.257E+01 -.473E+03   0.256E+01 -.256E+01 0.473E+03   0.930E-02 -.930E-02 0.320E+00
 -----------------------------------------------------------------------------------------------
   0.166E-10 0.183E-10 0.539E+02   0.959E-13 -.999E-13 0.477E-11   -.347E-17 0.833E-16 -.460E+02


 POSITION                                       TOTAL-FORCE (eV/Angst)
 -----------------------------------------------------------------------------------
      4.22049      4.22049     16.31916        -0.000000     -0.000000      2.010093
      4.22049      4.22049     17.46598        -0.000000     -0.000000     -1.934579
      0.00000      6.33074      7.50000        -0.000000     -0.000086      0.464794
      2.11025      0.00000      7.50000         0.000086     -0.000000      0.464794
      0.00000      0.00000      9.61025        -0.000000     -0.000000      0.039520
      2.11025      6.33074      9.61025         0.001562     -0.001562      0.041605
      0.00000      6.33023     11.73368        -0.000000     -0.001876      0.017475
      2.11076      0.00000     11.73368         0.001876     -0.000000      0.017475
      0.00000      0.00000     13.83822        -0.000000     -0.000000     -0.082658
      2.10905      6.33193     13.83447        -0.010376      0.010376     -0.101639
      0.00000      2.11025      7.50000        -0.000000      0.000086      0.464794
      2.11025      4.22049      7.50000         0.000473     -0.000000      0.465006
      0.00000      4.22049      9.61025        -0.000000     -0.000000      0.050532
      2.11025      2.11025      9.61025         0.001562      0.001562      0.041605
      0.00000      2.11076     11.73368        -0.000000      0.001876      0.017475
      2.11344      4.22049     11.73659        -0.005624     -0.000000      0.028155
      0.00000      4.22049     13.83544        -0.000000     -0.000000     -0.092789
      2.10905      2.10905     13.83447        -0.010376     -0.010376     -0.101639
      4.22049      6.33074      7.50000        -0.000000     -0.000473      0.465006
      6.33074      0.00000      7.50000        -0.000086     -0.000000      0.464794
      4.22049      0.00000      9.61025        -0.000000     -0.000000      0.050532
      6.33074      6.33074      9.61025        -0.001562     -0.001562      0.041605
      4.22049      6.32754     11.73659        -0.000000      0.005624      0.028155
      6.33023      0.00000     11.73368        -0.001876     -0.000000      0.017475
      4.22049      0.00000     13.83544        -0.000000     -0.000000     -0.092789
      6.33193      6.33193     13.83447         0.010376      0.010376     -0.101639
      4.22049      2.11025      7.50000        -0.000000      0.000473      0.465006
      6.33074      4.22049      7.50000        -0.000473     -0.000000      0.465006
      4.22049      4.22049      9.61025        -0.000000     -0.000000      0.052230
      6.33074      2.11025      9.61025        -0.001562      0.001562      0.041605
      4.22049      2.11344     11.73659        -0.000000     -0.005624      0.028155
      6.32754      4.22049     11.73659         0.005624     -0.000000      0.028155
      4.22049      4.22049     13.87814        -0.000000     -0.000000     -0.062311
      6.33193      2.10905     13.83447         0.010376     -0.010376     -0.101639
      0.00000      6.33074      9.61025        -0.000000      0.002698      0.057588
      2.11025      0.00000      9.61025        -0.002698     -0.000000      0.057588
      0.00000      0.00000      7.50000        -0.000000     -0.000000     -0.433651
      2.11025      6.33074      7.50000        -0.000339      0.000339     -0.433424
      0.00000      6.33258     13.88587        -0.000000      0.000528     -0.110866
      2.10840      0.00000     13.88587        -0.000528     -0.000000     -0.110866
      0.00000      0.00000     11.72785        -0.000000     -0.000000      0.034794
      2.10979      6.33120     11.72890         0.001841     -0.001841      0.028968
      0.00000      2.11025      9.61025        -0.000000     -0.002698      0.057588
      2.11025      4.22049      9.61025         0.010795     -0.000000      0.065776
      0.00000      4.22049      7.50000        -0.000000     -0.000000     -0.433754
      2.11025      2.11025      7.50000        -0.000339     -0.000339     -0.433424
      0.00000      2.10840     13.88587        -0.000000     -0.000528     -0.110866
      2.10031      4.22049     13.88381        -0.001428     -0.000000     -0.100645
      0.00000      4.22049     11.72684        -0.000000     -0.000000      0.030237
      2.10979      2.10979     11.72890         0.001841      0.001841      0.028968
      4.22049      6.33074      9.61025        -0.000000     -0.010795      0.065776
      6.33074      0.00000      9.61025         0.002698     -0.000000      0.057588
      4.22049      0.00000      7.50000        -0.000000     -0.000000     -0.433754
      6.33074      6.33074      7.50000         0.000339      0.000339     -0.433424
      4.22049      6.34068     13.88381        -0.000000      0.001428     -0.100645
      6.33258      0.00000     13.88587         0.000528     -0.000000     -0.110866
      4.22049      0.00000     11.72684        -0.000000     -0.000000      0.030237
      6.33120      6.33120     11.72890        -0.001841     -0.001841      0.028968
      4.22049      2.11025      9.61025        -0.000000      0.010795      0.065776
      6.33074      4.22049      9.61025        -0.010795     -0.000000      0.065776
      4.22049      4.22049      7.50000        -0.000000     -0.000000     -0.434091
      6.33074      2.11025      7.50000         0.000339     -0.000339     -0.433424
      4.22049      2.10031     13.88381        -0.000000     -0.001428     -0.100645
      6.34068      4.22049     13.88381         0.001428     -0.000000     -0.100645
      4.22049      4.22049     11.73684        -0.000000     -0.000000      0.011028
      6.33120      2.10979     11.72890        -0.001841      0.001841      0.028968
 -----------------------------------------------------------------------------------
    total drift:                                0.000000      0.000000     -0.004506


--------------------------------------------------------------------------------------------------------



  FREE ENERGIE OF THE ION-ELECTRON SYSTEM (eV)
  ---------------------------------------------------
  free  energy   TOTEN  =      -456.64252654 eV

  energy  without entropy=     -456.64252654  energy(sigma->0) =     -456.64252654



--------------------------------------------------------------------------------------------------------


    POTLOK:  cpu time      0.6848: real time      0.6852


--------------------------------------------------------------------------------------------------------


     LOOP+:  cpu time   4607.6266: real time   4611.1329
    4ORBIT:  cpu time      0.0000: real time      0.0000

 total amount of memory used by VASP MPI-rank0   193363. kBytes
=======================================================================

   base      :      30000. kBytes
   nonl-proj :      14893. kBytes
   fftplans  :       7742. kBytes
   grid      :       8190. kBytes
   one-center:         73. kBytes
   HF        :        101. kBytes
   nonlr-proj:      15027. kBytes
   wavefun   :       4746. kBytes
   fock_wrk  :     112591. kBytes



 General timing and accounting informations for this job:
 ========================================================

                  Total CPU time used (sec):     4644.929
                            User time (sec):     4630.247
                          System time (sec):       14.682
                         Elapsed time (sec):     4660.829

                   Maximum memory used (kb):      488232.
                   Average memory used (kb):          N/A

                          Minor page faults:       255624
                          Major page faults:         1256
                 Voluntary context switches:        12035
