 **********************************************************************
                          MRCC program system
 **********************************************************************
 
                              Written by
     Mihaly Kallay, Peter R. Nagy, David Mester, Laszlo Gyevi-Nagy,
        Jozsef Csoka, P. Bernat Szabo, Zoltan Rolik, Gyula Samu,
     Jozsef Csontos, Bence Hegely, Adam Ganyecz, Istvan Ladjanszki,
       Lorant Szegedy, Bence Ladoczki, Klara Petrov, Mate Farkas,
                    Pal D. Mezei, and Reka A. Horvath
 
        Department of Physical Chemistry and Materials Science
            Budapest University of Technology and Economics
                  Budapest P.O.Box 91, H-1521 Hungary
 
                              www.mrcc.hu
 
                     Release date: August 28, 2023

 ************************ 2024-11-25 19:49:18 *************************
 Executing minp...

 Reading input from MINP...
 
 Input file:
 
calc=LNO-CCSD(T)
scftype=rhf
verbosity=3
mem=200000MB
symm=off
unit=angs
scfiguess=restart
scfmaxit=1000
scfalg=locfit1
bpedo=0.99999
ccmaxit=400
usedisk=0
ccsdalg=dfdirect
ccsdthreads=4
ccsdmkl=thr
ptthreads=4
lcorthr=tight
basis_sm=special
def2-SVP
def2-SVP
def2-SVP
def2-SVP
def2-SVP
def2-SVP
def2-SVP
def2-SVP
def2-SVP
def2-SVP
def2-SVP
def2-SVP
def2-SVP
def2-SVP
def2-SVP
def2-SVP
def2-SVP
def2-SVP
def2-SVP
def2-SVP
def2-SVP
def2-SVP
def2-SVP
def2-SVP
def2-SVP
def2-SVP
def2-SVP
def2-SVP
def2-SVP
def2-SVP
def2-SVP
def2-SVP
def2-SVP
def2-SVP
def2-SVP
def2-SVP
no-basis-set
no-basis-set
no-basis-set
no-basis-set
no-basis-set
no-basis-set
no-basis-set
no-basis-set
no-basis-set
no-basis-set
no-basis-set
no-basis-set
no-basis-set
no-basis-set
no-basis-set
no-basis-set
no-basis-set
no-basis-set
no-basis-set
no-basis-set
no-basis-set
no-basis-set
no-basis-set
no-basis-set
no-basis-set
no-basis-set
no-basis-set
no-basis-set
no-basis-set
no-basis-set
no-basis-set
no-basis-set
no-basis-set
no-basis-set
no-basis-set
no-basis-set
no-basis-set
no-basis-set
no-basis-set
no-basis-set
no-basis-set
no-basis-set
no-basis-set
no-basis-set
no-basis-set
no-basis-set
no-basis-set
no-basis-set
no-basis-set
no-basis-set
no-basis-set
no-basis-set
no-basis-set
no-basis-set
no-basis-set
no-basis-set
no-basis-set
no-basis-set
no-basis-set
no-basis-set
no-basis-set
no-basis-set
no-basis-set
no-basis-set
no-basis-set
no-basis-set
no-basis-set
no-basis-set
no-basis-set
no-basis-set
no-basis-set
no-basis-set
no-basis-set
no-basis-set
no-basis-set
no-basis-set
no-basis-set
no-basis-set
no-basis-set
no-basis-set
no-basis-set
no-basis-set
no-basis-set
no-basis-set
no-basis-set
no-basis-set
no-basis-set
no-basis-set
no-basis-set
no-basis-set
no-basis-set
no-basis-set
no-basis-set
no-basis-set
no-basis-set
no-basis-set
no-basis-set
no-basis-set
no-basis-set
no-basis-set
no-basis-set
no-basis-set
no-basis-set
no-basis-set
no-basis-set
no-basis-set
no-basis-set
no-basis-set
no-basis-set
no-basis-set
no-basis-set
no-basis-set
no-basis-set


basis=special
aug-cc-pVTZ
aug-cc-pVTZ
cc-pVTZ
aug-cc-pVTZ
aug-cc-pVTZ
aug-cc-pVTZ
aug-cc-pVTZ
aug-cc-pVTZ
cc-pVTZ
cc-pVTZ
cc-pVTZ
cc-pVTZ
aug-cc-pVTZ
aug-cc-pVTZ
aug-cc-pVTZ
aug-cc-pVTZ
cc-pVTZ
cc-pVTZ
cc-pVTZ
cc-pVTZ
aug-cc-pVTZ
aug-cc-pVTZ
aug-cc-pVTZ
aug-cc-pVTZ
aug-cc-pVTZ
aug-cc-pVTZ
aug-cc-pVTZ
aug-cc-pVTZ
aug-cc-pVTZ
aug-cc-pVTZ
aug-cc-pVTZ
aug-cc-pVTZ
aug-cc-pVTZ
aug-cc-pVTZ
aug-cc-pVTZ
aug-cc-pVTZ
no-basis-set
no-basis-set
no-basis-set
no-basis-set
no-basis-set
no-basis-set
no-basis-set
no-basis-set
no-basis-set
no-basis-set
no-basis-set
no-basis-set
no-basis-set
no-basis-set
no-basis-set
no-basis-set
no-basis-set
no-basis-set
no-basis-set
no-basis-set
no-basis-set
no-basis-set
no-basis-set
no-basis-set
no-basis-set
no-basis-set
no-basis-set
no-basis-set
no-basis-set
no-basis-set
no-basis-set
no-basis-set
no-basis-set
no-basis-set
no-basis-set
no-basis-set
no-basis-set
no-basis-set
no-basis-set
no-basis-set
no-basis-set
no-basis-set
no-basis-set
no-basis-set
no-basis-set
no-basis-set
no-basis-set
no-basis-set
no-basis-set
no-basis-set
no-basis-set
no-basis-set
no-basis-set
no-basis-set
no-basis-set
no-basis-set
no-basis-set
no-basis-set
no-basis-set
no-basis-set
no-basis-set
no-basis-set
no-basis-set
no-basis-set
no-basis-set
no-basis-set
no-basis-set
no-basis-set
no-basis-set
no-basis-set
no-basis-set
no-basis-set
no-basis-set
no-basis-set
no-basis-set
no-basis-set
no-basis-set
no-basis-set
no-basis-set
no-basis-set
no-basis-set
no-basis-set
no-basis-set
no-basis-set
no-basis-set
no-basis-set
no-basis-set
no-basis-set
no-basis-set
no-basis-set
no-basis-set
no-basis-set
no-basis-set
no-basis-set
no-basis-set
no-basis-set
no-basis-set
no-basis-set
no-basis-set
no-basis-set
no-basis-set
no-basis-set
no-basis-set
no-basis-set
no-basis-set
no-basis-set
no-basis-set
no-basis-set
no-basis-set
no-basis-set
no-basis-set
no-basis-set
no-basis-set


dfbasis_scf=special
def2-QZVPP-RI-JK
def2-QZVPP-RI-JK
def2-QZVPP-RI-JK
def2-QZVPP-RI-JK
def2-QZVPP-RI-JK
def2-QZVPP-RI-JK
def2-QZVPP-RI-JK
def2-QZVPP-RI-JK
def2-QZVPP-RI-JK
def2-QZVPP-RI-JK
def2-QZVPP-RI-JK
def2-QZVPP-RI-JK
def2-QZVPP-RI-JK
def2-QZVPP-RI-JK
def2-QZVPP-RI-JK
def2-QZVPP-RI-JK
def2-QZVPP-RI-JK
def2-QZVPP-RI-JK
def2-QZVPP-RI-JK
def2-QZVPP-RI-JK
def2-QZVPP-RI-JK
def2-QZVPP-RI-JK
def2-QZVPP-RI-JK
def2-QZVPP-RI-JK
def2-QZVPP-RI-JK
def2-QZVPP-RI-JK
def2-QZVPP-RI-JK
def2-QZVPP-RI-JK
def2-QZVPP-RI-JK
def2-QZVPP-RI-JK
def2-QZVPP-RI-JK
def2-QZVPP-RI-JK
def2-QZVPP-RI-JK
def2-QZVPP-RI-JK
def2-QZVPP-RI-JK
def2-QZVPP-RI-JK
no-basis-set
no-basis-set
no-basis-set
no-basis-set
no-basis-set
no-basis-set
no-basis-set
no-basis-set
no-basis-set
no-basis-set
no-basis-set
no-basis-set
no-basis-set
no-basis-set
no-basis-set
no-basis-set
no-basis-set
no-basis-set
no-basis-set
no-basis-set
no-basis-set
no-basis-set
no-basis-set
no-basis-set
no-basis-set
no-basis-set
no-basis-set
no-basis-set
no-basis-set
no-basis-set
no-basis-set
no-basis-set
no-basis-set
no-basis-set
no-basis-set
no-basis-set
no-basis-set
no-basis-set
no-basis-set
no-basis-set
no-basis-set
no-basis-set
no-basis-set
no-basis-set
no-basis-set
no-basis-set
no-basis-set
no-basis-set
no-basis-set
no-basis-set
no-basis-set
no-basis-set
no-basis-set
no-basis-set
no-basis-set
no-basis-set
no-basis-set
no-basis-set
no-basis-set
no-basis-set
no-basis-set
no-basis-set
no-basis-set
no-basis-set
no-basis-set
no-basis-set
no-basis-set
no-basis-set
no-basis-set
no-basis-set
no-basis-set
no-basis-set
no-basis-set
no-basis-set
no-basis-set
no-basis-set
no-basis-set
no-basis-set
no-basis-set
no-basis-set
no-basis-set
no-basis-set
no-basis-set
no-basis-set
no-basis-set
no-basis-set
no-basis-set
no-basis-set
no-basis-set
no-basis-set
no-basis-set
no-basis-set
no-basis-set
no-basis-set
no-basis-set
no-basis-set
no-basis-set
no-basis-set
no-basis-set
no-basis-set
no-basis-set
no-basis-set
no-basis-set
no-basis-set
no-basis-set
no-basis-set
no-basis-set
no-basis-set
no-basis-set
no-basis-set
no-basis-set
no-basis-set
no-basis-set


dfbasis_cor=special
aug-cc-pVTZ-RI
aug-cc-pVTZ-RI
cc-pVTZ-RI
aug-cc-pVTZ-RI
aug-cc-pVTZ-RI
aug-cc-pVTZ-RI
aug-cc-pVTZ-RI
aug-cc-pVTZ-RI
cc-pVTZ-RI
cc-pVTZ-RI
cc-pVTZ-RI
cc-pVTZ-RI
aug-cc-pVTZ-RI
aug-cc-pVTZ-RI
aug-cc-pVTZ-RI
aug-cc-pVTZ-RI
cc-pVTZ-RI
cc-pVTZ-RI
cc-pVTZ-RI
cc-pVTZ-RI
aug-cc-pVTZ-RI
aug-cc-pVTZ-RI
aug-cc-pVTZ-RI
aug-cc-pVTZ-RI
aug-cc-pVTZ-RI
aug-cc-pVTZ-RI
aug-cc-pVTZ-RI
aug-cc-pVTZ-RI
aug-cc-pVTZ-RI
aug-cc-pVTZ-RI
aug-cc-pVTZ-RI
aug-cc-pVTZ-RI
aug-cc-pVTZ-RI
aug-cc-pVTZ-RI
aug-cc-pVTZ-RI
aug-cc-pVTZ-RI
no-basis-set
no-basis-set
no-basis-set
no-basis-set
no-basis-set
no-basis-set
no-basis-set
no-basis-set
no-basis-set
no-basis-set
no-basis-set
no-basis-set
no-basis-set
no-basis-set
no-basis-set
no-basis-set
no-basis-set
no-basis-set
no-basis-set
no-basis-set
no-basis-set
no-basis-set
no-basis-set
no-basis-set
no-basis-set
no-basis-set
no-basis-set
no-basis-set
no-basis-set
no-basis-set
no-basis-set
no-basis-set
no-basis-set
no-basis-set
no-basis-set
no-basis-set
no-basis-set
no-basis-set
no-basis-set
no-basis-set
no-basis-set
no-basis-set
no-basis-set
no-basis-set
no-basis-set
no-basis-set
no-basis-set
no-basis-set
no-basis-set
no-basis-set
no-basis-set
no-basis-set
no-basis-set
no-basis-set
no-basis-set
no-basis-set
no-basis-set
no-basis-set
no-basis-set
no-basis-set
no-basis-set
no-basis-set
no-basis-set
no-basis-set
no-basis-set
no-basis-set
no-basis-set
no-basis-set
no-basis-set
no-basis-set
no-basis-set
no-basis-set
no-basis-set
no-basis-set
no-basis-set
no-basis-set
no-basis-set
no-basis-set
no-basis-set
no-basis-set
no-basis-set
no-basis-set
no-basis-set
no-basis-set
no-basis-set
no-basis-set
no-basis-set
no-basis-set
no-basis-set
no-basis-set
no-basis-set
no-basis-set
no-basis-set
no-basis-set
no-basis-set
no-basis-set
no-basis-set
no-basis-set
no-basis-set
no-basis-set
no-basis-set
no-basis-set
no-basis-set
no-basis-set
no-basis-set
no-basis-set
no-basis-set
no-basis-set
no-basis-set
no-basis-set
no-basis-set
no-basis-set
no-basis-set


ecp=special
none
none
none
none
none
none
none
none
none
none
none
none
none
none
none
none
none
none
none
none
none
none
none
none
none
none
none
none
none
none
none
none
none
none
none
none
capECP
capECP
capECP
capECP
capECP
capECP
capECP
capECP
capECP
capECP
capECP
capECP
capECP
capECP
capECP
capECP
capECP
capECP
capECP
capECP
capECP
capECP
capECP
capECP
capECP
capECP
capECP
capECP
capECP
capECP
capECP
capECP
capECP
capECP
capECP
capECP
capECP
capECP
capECP
capECP
capECP
capECP
capECP
capECP
capECP
capECP
capECP
capECP
capECP
capECP
capECP
capECP
capECP
capECP
capECP
capECP
capECP
capECP
capECP
capECP
capECP
capECP
capECP
capECP
capECP
capECP
capECP
capECP
capECP
capECP
capECP
capECP
capECP
capECP
capECP
capECP
capECP
capECP
capECP
capECP
capECP
capECP
capECP
capECP
capECP
capECP
capECP
capECP
capECP
capECP
capECP
capECP
capECP
capECP
capECP
capECP
capECP
capECP
capECP
capECP
capECP
capECP
capECP
capECP
capECP
capECP
capECP
capECP
capECP
capECP
capECP
capECP
capECP

charge=-32
mult=1
core=72
geom=xyz
149

C                       0.00000000000    0.00000000000    2.44102235837
O                       0.00000000000    0.00000000000    3.58784217303
Mg                      0.00000000000    0.00000000000    0.00000000000
O                      -2.12018425659    0.00000000000    0.00567209089
O                       0.00000000000    2.12018425659    0.00567209089
O                       2.12018425659    0.00000000000    0.00567209089
O                       0.00000000000   -2.12018425659    0.00567209089
O                       0.00000000000    0.00000000000   -2.14129966123
Mg                     -2.11144262254    2.11144262254   -0.04367284424
Mg                      2.11144262254    2.11144262254   -0.04367284424
Mg                      2.11144262254   -2.11144262254   -0.04367284424
Mg                     -2.11144262254   -2.11144262254   -0.04367284424
O                      -2.11070451449    2.11070451449   -2.14923989662
O                       2.11070451449    2.11070451449   -2.14923989662
O                       2.11070451449   -2.11070451449   -2.14923989662
O                      -2.11070451449   -2.11070451449   -2.14923989662
Mg                     -4.22049352791    0.00000000000   -0.04269731856
Mg                      0.00000000000    4.22049352791   -0.04269731856
Mg                      4.22049352791    0.00000000000   -0.04269731856
Mg                      0.00000000000   -4.22049352791   -0.04269731856
O                      -4.22049352791    2.11209139723    0.00772802266
O                      -2.11209139723    4.22049352791    0.00772802266
O                       2.11209139723    4.22049352791    0.00772802266
O                       4.22049352791    2.11209139723    0.00772802266
O                       4.22049352791   -2.11209139723    0.00772802266
O                       2.11209139723   -4.22049352791    0.00772802266
O                      -2.11209139723   -4.22049352791    0.00772802266
O                      -4.22049352791   -2.11209139723    0.00772802266
O                      -4.22049352791    0.00000000000   -2.15129719490
O                       0.00000000000    4.22049352791   -2.15129719490
O                       4.22049352791    0.00000000000   -2.15129719490
O                       0.00000000000   -4.22049352791   -2.15129719490
O                      -6.32080279923    0.00000000000    0.00567209089
O                       0.00000000000    6.32080279923    0.00567209089
O                       6.32080279923    0.00000000000    0.00567209089
O                       0.00000000000   -6.32080279923    0.00567209089
Mg                     -2.10705287155    0.00000000000   -2.14155206950
Mg                      0.00000000000    2.10705287155   -2.14155206950
Mg                      2.10705287155    0.00000000000   -2.14155206950
Mg                      0.00000000000   -2.10705287155   -2.14155206950
Mg                      0.00000000000    0.00000000000   -4.26789528527
Mg                     -4.22049352791    2.10973412517   -2.14445912302
Mg                     -2.10973412517    4.22049352791   -2.14445912302
Mg                      2.10973412517    4.22049352791   -2.14445912302
Mg                      4.22049352791    2.10973412517   -2.14445912302
Mg                      4.22049352791   -2.10973412517   -2.14445912302
Mg                      2.10973412517   -4.22049352791   -2.14445912302
Mg                     -2.10973412517   -4.22049352791   -2.14445912302
Mg                     -4.22049352791   -2.10973412517   -2.14445912302
Mg                     -2.11024676395    2.11024676395   -4.26789528527
Mg                      2.11024676395    2.11024676395   -4.26789528527
Mg                      2.11024676395   -2.11024676395   -4.26789528527
Mg                     -2.11024676395   -2.11024676395   -4.26789528527
Mg                     -4.22049352791    4.22049352791   -0.03992370948
Mg                      4.22049352791    4.22049352791   -0.03992370948
Mg                      4.22049352791   -4.22049352791   -0.03992370948
Mg                     -4.22049352791   -4.22049352791   -0.03992370948
Mg                     -4.22049352791    0.00000000000   -4.26789528527
Mg                      0.00000000000    4.22049352791   -4.26789528527
Mg                      4.22049352791    0.00000000000   -4.26789528527
Mg                      0.00000000000   -4.22049352791   -4.26789528527
Mg                     -6.32954443328    2.11144262254   -0.04367284424
Mg                     -2.11144262254    6.32954443328   -0.04367284424
Mg                      2.11144262254    6.32954443328   -0.04367284424
Mg                      6.32954443328    2.11144262254   -0.04367284424
Mg                      6.32954443328   -2.11144262254   -0.04367284424
Mg                      2.11144262254   -6.32954443328   -0.04367284424
Mg                     -2.11144262254   -6.32954443328   -0.04367284424
Mg                     -6.32954443328   -2.11144262254   -0.04367284424
Mg                     -6.33393418427    0.00000000000   -2.14155206950
Mg                      0.00000000000    6.33393418427   -2.14155206950
Mg                      6.33393418427    0.00000000000   -2.14155206950
Mg                      0.00000000000   -6.33393418427   -2.14155206950
Mg                     -2.11024676395    0.00000000000   -6.37814204923
Mg                      0.00000000000    2.11024676395   -6.37814204923
Mg                      2.11024676395    0.00000000000   -6.37814204923
Mg                      0.00000000000   -2.11024676395   -6.37814204923
Mg                     -4.22049352791    4.22049352791   -4.26789528527
Mg                      4.22049352791    4.22049352791   -4.26789528527
Mg                      4.22049352791   -4.22049352791   -4.26789528527
Mg                     -4.22049352791   -4.22049352791   -4.26789528527
Mg                     -6.33125293065    4.22049352791   -2.14445912302
Mg                     -4.22049352791    6.33125293065   -2.14445912302
Mg                      4.22049352791    6.33125293065   -2.14445912302
Mg                      6.33125293065    4.22049352791   -2.14445912302
Mg                      6.33125293065   -4.22049352791   -2.14445912302
Mg                      4.22049352791   -6.33125293065   -2.14445912302
Mg                     -4.22049352791   -6.33125293065   -2.14445912302
Mg                     -6.33125293065   -4.22049352791   -2.14445912302
Mg                     -6.33074029186    2.11024676395   -4.26789528527
Mg                     -2.11024676395    6.33074029186   -4.26789528527
Mg                      2.11024676395    6.33074029186   -4.26789528527
Mg                      6.33074029186    2.11024676395   -4.26789528527
Mg                      6.33074029186   -2.11024676395   -4.26789528527
Mg                      2.11024676395   -6.33074029186   -4.26789528527
Mg                     -2.11024676395   -6.33074029186   -4.26789528527
Mg                     -6.33074029186   -2.11024676395   -4.26789528527
Mg                     -4.22049352791    2.11024676395   -6.37814204923
Mg                     -2.11024676395    4.22049352791   -6.37814204923
Mg                      2.11024676395    4.22049352791   -6.37814204923
Mg                      4.22049352791    2.11024676395   -6.37814204923
Mg                      4.22049352791   -2.11024676395   -6.37814204923
Mg                      2.11024676395   -4.22049352791   -6.37814204923
Mg                     -2.11024676395   -4.22049352791   -6.37814204923
Mg                     -4.22049352791   -2.11024676395   -6.37814204923
Mg                     -8.44098705582    0.00000000000    0.00000000000
Mg                      0.00000000000    8.44098705582    0.00000000000
Mg                      8.44098705582    0.00000000000    0.00000000000
Mg                      0.00000000000   -8.44098705582    0.00000000000
Mg                     -6.32954443328    6.32954443328   -0.04367284424
Mg                      6.32954443328    6.32954443328   -0.04367284424
Mg                      6.32954443328   -6.32954443328   -0.04367284424
Mg                     -6.32954443328   -6.32954443328   -0.04367284424
Mg                     -8.44098705582    2.10705287155   -2.14155206950
Mg                     -2.10705287155    8.44098705582   -2.14155206950
Mg                      2.10705287155    8.44098705582   -2.14155206950
Mg                      8.44098705582    2.10705287155   -2.14155206950
Mg                      8.44098705582   -2.10705287155   -2.14155206950
Mg                      2.10705287155   -8.44098705582   -2.14155206950
Mg                     -2.10705287155   -8.44098705582   -2.14155206950
Mg                     -8.44098705582   -2.10705287155   -2.14155206950
Mg                     -6.33074029186    0.00000000000   -6.37814204923
Mg                      0.00000000000    6.33074029186   -6.37814204923
Mg                      6.33074029186    0.00000000000   -6.37814204923
Mg                      0.00000000000   -6.33074029186   -6.37814204923
Mg                     -8.44098705582    4.22049352791   -0.04269731856
Mg                     -4.22049352791    8.44098705582   -0.04269731856
Mg                      4.22049352791    8.44098705582   -0.04269731856
Mg                      8.44098705582    4.22049352791   -0.04269731856
Mg                      8.44098705582   -4.22049352791   -0.04269731856
Mg                      4.22049352791   -8.44098705582   -0.04269731856
Mg                     -4.22049352791   -8.44098705582   -0.04269731856
Mg                     -8.44098705582   -4.22049352791   -0.04269731856
Mg                     -8.44098705582    0.00000000000   -4.26789528527
Mg                      0.00000000000    8.44098705582   -4.26789528527
Mg                      8.44098705582    0.00000000000   -4.26789528527
Mg                      0.00000000000   -8.44098705582   -4.26789528527
Mg                    -10.55242967836    2.11144262254   -0.04367284424
Mg                     -2.11144262254   10.55242967836   -0.04367284424
Mg                      2.11144262254   10.55242967836   -0.04367284424
Mg                     10.55242967836    2.11144262254   -0.04367284424
Mg                     10.55242967836   -2.11144262254   -0.04367284424
Mg                      2.11144262254  -10.55242967836   -0.04367284424
Mg                     -2.11144262254  -10.55242967836   -0.04367284424
Mg                    -10.55242967836   -2.11144262254   -0.04367284424
Mg                    -10.54803992736    0.00000000000   -2.14155206950
Mg                      0.00000000000   10.54803992736   -2.14155206950
Mg                     10.54803992736    0.00000000000   -2.14155206950
Mg                      0.00000000000  -10.54803992736   -2.14155206950

ghost=serialno


qmmm=Amber
pointcharges
10157
    -2.10705287155    0.00000000000   -2.14155206950    2.00000000000
     0.00000000000    2.10705287155   -2.14155206950    2.00000000000
     2.10705287155    0.00000000000   -2.14155206950    2.00000000000
     0.00000000000   -2.10705287155   -2.14155206950    2.00000000000
     0.00000000000    0.00000000000   -4.26789528527    2.00000000000
    -2.11024676395    0.00000000000   -4.26789528527   -2.00000000000
     0.00000000000    2.11024676395   -4.26789528527   -2.00000000000
     2.11024676395    0.00000000000   -4.26789528527   -2.00000000000
     0.00000000000   -2.11024676395   -4.26789528527   -2.00000000000
    -4.22049352791    2.10973412517   -2.14445912302    2.00000000000
    -2.10973412517    4.22049352791   -2.14445912302    2.00000000000
     2.10973412517    4.22049352791   -2.14445912302    2.00000000000
     4.22049352791    2.10973412517   -2.14445912302    2.00000000000
     4.22049352791   -2.10973412517   -2.14445912302    2.00000000000
     2.10973412517   -4.22049352791   -2.14445912302    2.00000000000
    -2.10973412517   -4.22049352791   -2.14445912302    2.00000000000
    -4.22049352791   -2.10973412517   -2.14445912302    2.00000000000
    -2.11024676395    2.11024676395   -4.26789528527    2.00000000000
     2.11024676395    2.11024676395   -4.26789528527    2.00000000000
     2.11024676395   -2.11024676395   -4.26789528527    2.00000000000
    -2.11024676395   -2.11024676395   -4.26789528527    2.00000000000
    -4.22049352791    4.22049352791   -0.03992370948    2.00000000000
     4.22049352791    4.22049352791   -0.03992370948    2.00000000000
     4.22049352791   -4.22049352791   -0.03992370948    2.00000000000
    -4.22049352791   -4.22049352791   -0.03992370948    2.00000000000
    -4.22049352791    0.00000000000   -4.26789528527    2.00000000000
     0.00000000000    4.22049352791   -4.26789528527    2.00000000000
     4.22049352791    0.00000000000   -4.26789528527    2.00000000000
     0.00000000000   -4.22049352791   -4.26789528527    2.00000000000
    -4.22049352791    4.22049352791   -2.15028985266   -2.00000000000
     4.22049352791    4.22049352791   -2.15028985266   -2.00000000000
     4.22049352791   -4.22049352791   -2.15028985266   -2.00000000000
    -4.22049352791   -4.22049352791   -2.15028985266   -2.00000000000
    -4.22049352791    2.11024676395   -4.26789528527   -2.00000000000
    -2.11024676395    4.22049352791   -4.26789528527   -2.00000000000
     2.11024676395    4.22049352791   -4.26789528527   -2.00000000000
     4.22049352791    2.11024676395   -4.26789528527   -2.00000000000
     4.22049352791   -2.11024676395   -4.26789528527   -2.00000000000
     2.11024676395   -4.22049352791   -4.26789528527   -2.00000000000
    -2.11024676395   -4.22049352791   -4.26789528527   -2.00000000000
    -4.22049352791   -2.11024676395   -4.26789528527   -2.00000000000
     0.00000000000    0.00000000000   -6.37814204923   -2.00000000000
    -6.32954443328    2.11144262254   -0.04367284424    2.00000000000
    -2.11144262254    6.32954443328   -0.04367284424    2.00000000000
     2.11144262254    6.32954443328   -0.04367284424    2.00000000000
     6.32954443328    2.11144262254   -0.04367284424    2.00000000000
     6.32954443328   -2.11144262254   -0.04367284424    2.00000000000
     2.11144262254   -6.32954443328   -0.04367284424    2.00000000000
    -2.11144262254   -6.32954443328   -0.04367284424    2.00000000000
    -6.32954443328   -2.11144262254   -0.04367284424    2.00000000000
    -6.33393418427    0.00000000000   -2.14155206950    2.00000000000
     0.00000000000    6.33393418427   -2.14155206950    2.00000000000
     6.33393418427    0.00000000000   -2.14155206950    2.00000000000
     0.00000000000   -6.33393418427   -2.14155206950    2.00000000000
    -2.11024676395    0.00000000000   -6.37814204923    2.00000000000
     0.00000000000    2.11024676395   -6.37814204923    2.00000000000
     2.11024676395    0.00000000000   -6.37814204923    2.00000000000
     0.00000000000   -2.11024676395   -6.37814204923    2.00000000000
    -6.33028254133    2.11070451449   -2.14923989662   -2.00000000000
    -2.11070451449    6.33028254133   -2.14923989662   -2.00000000000
     2.11070451449    6.33028254133   -2.14923989662   -2.00000000000
     6.33028254133    2.11070451449   -2.14923989662   -2.00000000000
     6.33028254133   -2.11070451449   -2.14923989662   -2.00000000000
     2.11070451449   -6.33028254133   -2.14923989662   -2.00000000000
    -2.11070451449   -6.33028254133   -2.14923989662   -2.00000000000
    -6.33028254133   -2.11070451449   -2.14923989662   -2.00000000000
    -2.11024676395    2.11024676395   -6.37814204923   -2.00000000000
     2.11024676395    2.11024676395   -6.37814204923   -2.00000000000
     2.11024676395   -2.11024676395   -6.37814204923   -2.00000000000
    -2.11024676395   -2.11024676395   -6.37814204923   -2.00000000000
    -4.22049352791    4.22049352791   -4.26789528527    2.00000000000
     4.22049352791    4.22049352791   -4.26789528527    2.00000000000
     4.22049352791   -4.22049352791   -4.26789528527    2.00000000000
    -4.22049352791   -4.22049352791   -4.26789528527    2.00000000000
    -6.32889565859    4.22049352791    0.00772802266   -2.00000000000
    -4.22049352791    6.32889565859    0.00772802266   -2.00000000000
     4.22049352791    6.32889565859    0.00772802266   -2.00000000000
     6.32889565859    4.22049352791    0.00772802266   -2.00000000000
     6.32889565859   -4.22049352791    0.00772802266   -2.00000000000
     4.22049352791   -6.32889565859    0.00772802266   -2.00000000000
    -4.22049352791   -6.32889565859    0.00772802266   -2.00000000000
    -6.32889565859   -4.22049352791    0.00772802266   -2.00000000000
    -6.33074029186    0.00000000000   -4.26789528527   -2.00000000000
     0.00000000000    6.33074029186   -4.26789528527   -2.00000000000
     6.33074029186    0.00000000000   -4.26789528527   -2.00000000000
     0.00000000000   -6.33074029186   -4.26789528527   -2.00000000000
    -4.22049352791    0.00000000000   -6.37814204923   -2.00000000000
     0.00000000000    4.22049352791   -6.37814204923   -2.00000000000
     4.22049352791    0.00000000000   -6.37814204923   -2.00000000000
     0.00000000000   -4.22049352791   -6.37814204923   -2.00000000000
    -6.33125293065    4.22049352791   -2.14445912302    2.00000000000
    -4.22049352791    6.33125293065   -2.14445912302    2.00000000000
     4.22049352791    6.33125293065   -2.14445912302    2.00000000000
     6.33125293065    4.22049352791   -2.14445912302    2.00000000000
     6.33125293065   -4.22049352791   -2.14445912302    2.00000000000
     4.22049352791   -6.33125293065   -2.14445912302    2.00000000000
    -4.22049352791   -6.33125293065   -2.14445912302    2.00000000000
    -6.33125293065   -4.22049352791   -2.14445912302    2.00000000000
    -6.33074029186    2.11024676395   -4.26789528527    2.00000000000
    -2.11024676395    6.33074029186   -4.26789528527    2.00000000000
     2.11024676395    6.33074029186   -4.26789528527    2.00000000000
     6.33074029186    2.11024676395   -4.26789528527    2.00000000000
     6.33074029186   -2.11024676395   -4.26789528527    2.00000000000
     2.11024676395   -6.33074029186   -4.26789528527    2.00000000000
    -2.11024676395   -6.33074029186   -4.26789528527    2.00000000000
    -6.33074029186   -2.11024676395   -4.26789528527    2.00000000000
    -4.22049352791    2.11024676395   -6.37814204923    2.00000000000
    -2.11024676395    4.22049352791   -6.37814204923    2.00000000000
     2.11024676395    4.22049352791   -6.37814204923    2.00000000000
     4.22049352791    2.11024676395   -6.37814204923    2.00000000000
     4.22049352791   -2.11024676395   -6.37814204923    2.00000000000
     2.11024676395   -4.22049352791   -6.37814204923    2.00000000000
    -2.11024676395   -4.22049352791   -6.37814204923    2.00000000000
    -4.22049352791   -2.11024676395   -6.37814204923    2.00000000000
    -8.44098705582    0.00000000000    0.00000000000    2.00000000000
     0.00000000000    8.44098705582    0.00000000000    2.00000000000
     8.44098705582    0.00000000000    0.00000000000    2.00000000000
     0.00000000000   -8.44098705582    0.00000000000    2.00000000000
    -8.44098705582    2.12018425659    0.00567209089   -2.00000000000
    -2.12018425659    8.44098705582    0.00567209089   -2.00000000000
     2.12018425659    8.44098705582    0.00567209089   -2.00000000000
     8.44098705582    2.12018425659    0.00567209089   -2.00000000000
     8.44098705582   -2.12018425659    0.00567209089   -2.00000000000
     2.12018425659   -8.44098705582    0.00567209089   -2.00000000000
    -2.12018425659   -8.44098705582    0.00567209089   -2.00000000000
    -8.44098705582   -2.12018425659    0.00567209089   -2.00000000000
    -8.44098705582    0.00000000000   -2.14129966123   -2.00000000000
     0.00000000000    8.44098705582   -2.14129966123   -2.00000000000
     8.44098705582    0.00000000000   -2.14129966123   -2.00000000000
     0.00000000000   -8.44098705582   -2.14129966123   -2.00000000000
    -6.33074029186    4.22049352791   -4.26789528527   -2.00000000000
    -4.22049352791    6.33074029186   -4.26789528527   -2.00000000000
     4.22049352791    6.33074029186   -4.26789528527   -2.00000000000
     6.33074029186    4.22049352791   -4.26789528527   -2.00000000000
     6.33074029186   -4.22049352791   -4.26789528527   -2.00000000000
     4.22049352791   -6.33074029186   -4.26789528527   -2.00000000000
    -4.22049352791   -6.33074029186   -4.26789528527   -2.00000000000
    -6.33074029186   -4.22049352791   -4.26789528527   -2.00000000000
    -4.22049352791    4.22049352791   -6.37814204923   -2.00000000000
     4.22049352791    4.22049352791   -6.37814204923   -2.00000000000
     4.22049352791   -4.22049352791   -6.37814204923   -2.00000000000
    -4.22049352791   -4.22049352791   -6.37814204923   -2.00000000000
    -6.32954443328    6.32954443328   -0.04367284424    2.00000000000
     6.32954443328    6.32954443328   -0.04367284424    2.00000000000
     6.32954443328   -6.32954443328   -0.04367284424    2.00000000000
    -6.32954443328   -6.32954443328   -0.04367284424    2.00000000000
    -8.44098705582    2.10705287155   -2.14155206950    2.00000000000
    -2.10705287155    8.44098705582   -2.14155206950    2.00000000000
     2.10705287155    8.44098705582   -2.14155206950    2.00000000000
     8.44098705582    2.10705287155   -2.14155206950    2.00000000000
     8.44098705582   -2.10705287155   -2.14155206950    2.00000000000
     2.10705287155   -8.44098705582   -2.14155206950    2.00000000000
    -2.10705287155   -8.44098705582   -2.14155206950    2.00000000000
    -8.44098705582   -2.10705287155   -2.14155206950    2.00000000000
    -6.33074029186    0.00000000000   -6.37814204923    2.00000000000
     0.00000000000    6.33074029186   -6.37814204923    2.00000000000
     6.33074029186    0.00000000000   -6.37814204923    2.00000000000
     0.00000000000   -6.33074029186   -6.37814204923    2.00000000000
    -6.33028254133    6.33028254133   -2.14923989662   -2.00000000000
     6.33028254133    6.33028254133   -2.14923989662   -2.00000000000
     6.33028254133   -6.33028254133   -2.14923989662   -2.00000000000
    -6.33028254133   -6.33028254133   -2.14923989662   -2.00000000000
    -6.33074029186    2.11024676395   -6.37814204923   -2.00000000000
    -2.11024676395    6.33074029186   -6.37814204923   -2.00000000000
     2.11024676395    6.33074029186   -6.37814204923   -2.00000000000
     6.33074029186    2.11024676395   -6.37814204923   -2.00000000000
     6.33074029186   -2.11024676395   -6.37814204923   -2.00000000000
     2.11024676395   -6.33074029186   -6.37814204923   -2.00000000000
    -2.11024676395   -6.33074029186   -6.37814204923   -2.00000000000
    -6.33074029186   -2.11024676395   -6.37814204923   -2.00000000000
    -8.44098705582    4.22049352791   -0.04269731856    2.00000000000
    -4.22049352791    8.44098705582   -0.04269731856    2.00000000000
     4.22049352791    8.44098705582   -0.04269731856    2.00000000000
     8.44098705582    4.22049352791   -0.04269731856    2.00000000000
     8.44098705582   -4.22049352791   -0.04269731856    2.00000000000
     4.22049352791   -8.44098705582   -0.04269731856    2.00000000000
    -4.22049352791   -8.44098705582   -0.04269731856    2.00000000000
    -8.44098705582   -4.22049352791   -0.04269731856    2.00000000000
    -8.44098705582    0.00000000000   -4.26789528527    2.00000000000
     0.00000000000    8.44098705582   -4.26789528527    2.00000000000
     8.44098705582    0.00000000000   -4.26789528527    2.00000000000
     0.00000000000   -8.44098705582   -4.26789528527    2.00000000000
    -8.44098705582    4.22049352791   -2.15129719490   -2.00000000000
    -4.22049352791    8.44098705582   -2.15129719490   -2.00000000000
     4.22049352791    8.44098705582   -2.15129719490   -2.00000000000
     8.44098705582    4.22049352791   -2.15129719490   -2.00000000000
     8.44098705582   -4.22049352791   -2.15129719490   -2.00000000000
     4.22049352791   -8.44098705582   -2.15129719490   -2.00000000000
    -4.22049352791   -8.44098705582   -2.15129719490   -2.00000000000
    -8.44098705582   -4.22049352791   -2.15129719490   -2.00000000000
    -8.44098705582    2.11024676395   -4.26789528527   -2.00000000000
    -2.11024676395    8.44098705582   -4.26789528527   -2.00000000000
     2.11024676395    8.44098705582   -4.26789528527   -2.00000000000
     8.44098705582    2.11024676395   -4.26789528527   -2.00000000000
     8.44098705582   -2.11024676395   -4.26789528527   -2.00000000000
     2.11024676395   -8.44098705582   -4.26789528527   -2.00000000000
    -2.11024676395   -8.44098705582   -4.26789528527   -2.00000000000
    -8.44098705582   -2.11024676395   -4.26789528527   -2.00000000000
    -6.33074029186    6.33074029186   -4.26789528527    2.00000000000
     6.33074029186    6.33074029186   -4.26789528527    2.00000000000
     6.33074029186   -6.33074029186   -4.26789528527    2.00000000000
    -6.33074029186   -6.33074029186   -4.26789528527    2.00000000000
    -6.33074029186    4.22049352791   -6.37814204923    2.00000000000
    -4.22049352791    6.33074029186   -6.37814204923    2.00000000000
     4.22049352791    6.33074029186   -6.37814204923    2.00000000000
     6.33074029186    4.22049352791   -6.37814204923    2.00000000000
     6.33074029186   -4.22049352791   -6.37814204923    2.00000000000
     4.22049352791   -6.33074029186   -6.37814204923    2.00000000000
    -4.22049352791   -6.33074029186   -6.37814204923    2.00000000000
    -6.33074029186   -4.22049352791   -6.37814204923    2.00000000000
    -8.44098705582    4.22049352791   -4.26789528527    2.00000000000
    -4.22049352791    8.44098705582   -4.26789528527    2.00000000000
     4.22049352791    8.44098705582   -4.26789528527    2.00000000000
     8.44098705582    4.22049352791   -4.26789528527    2.00000000000
     8.44098705582   -4.22049352791   -4.26789528527    2.00000000000
     4.22049352791   -8.44098705582   -4.26789528527    2.00000000000
    -4.22049352791   -8.44098705582   -4.26789528527    2.00000000000
    -8.44098705582   -4.22049352791   -4.26789528527    2.00000000000
    -8.44098705582    6.32080279923    0.00567209089   -2.00000000000
    -6.32080279923    8.44098705582    0.00567209089   -2.00000000000
     6.32080279923    8.44098705582    0.00567209089   -2.00000000000
     8.44098705582    6.32080279923    0.00567209089   -2.00000000000
     8.44098705582   -6.32080279923    0.00567209089   -2.00000000000
     6.32080279923   -8.44098705582    0.00567209089   -2.00000000000
    -6.32080279923   -8.44098705582    0.00567209089   -2.00000000000
    -8.44098705582   -6.32080279923    0.00567209089   -2.00000000000
   -10.56117131241    0.00000000000    0.00567209089   -2.00000000000
     0.00000000000   10.56117131241    0.00567209089   -2.00000000000
    10.56117131241    0.00000000000    0.00567209089   -2.00000000000
     0.00000000000  -10.56117131241    0.00567209089   -2.00000000000
    -8.44098705582    0.00000000000   -6.37814204923   -2.00000000000
     0.00000000000    8.44098705582   -6.37814204923   -2.00000000000
     8.44098705582    0.00000000000   -6.37814204923   -2.00000000000
     0.00000000000   -8.44098705582   -6.37814204923   -2.00000000000
   -10.55242967836    2.11144262254   -0.04367284424    2.00000000000
    -2.11144262254   10.55242967836   -0.04367284424    2.00000000000
     2.11144262254   10.55242967836   -0.04367284424    2.00000000000
    10.55242967836    2.11144262254   -0.04367284424    2.00000000000
    10.55242967836   -2.11144262254   -0.04367284424    2.00000000000
     2.11144262254  -10.55242967836   -0.04367284424    2.00000000000
    -2.11144262254  -10.55242967836   -0.04367284424    2.00000000000
   -10.55242967836   -2.11144262254   -0.04367284424    2.00000000000
   -10.54803992736    0.00000000000   -2.14155206950    2.00000000000
     0.00000000000   10.54803992736   -2.14155206950    2.00000000000
    10.54803992736    0.00000000000   -2.14155206950    2.00000000000
     0.00000000000  -10.54803992736   -2.14155206950    2.00000000000
    -8.44098705582    6.33393418427   -2.14155206950    2.00000000000
    -6.33393418427    8.44098705582   -2.14155206950    2.00000000000
     6.33393418427    8.44098705582   -2.14155206950    2.00000000000
     8.44098705582    6.33393418427   -2.14155206950    2.00000000000
     8.44098705582   -6.33393418427   -2.14155206950    2.00000000000
     6.33393418427   -8.44098705582   -2.14155206950    2.00000000000
    -6.33393418427   -8.44098705582   -2.14155206950    2.00000000000
    -8.44098705582   -6.33393418427   -2.14155206950    2.00000000000
    -8.44098705582    2.11024676395   -6.37814204923    2.00000000000
    -2.11024676395    8.44098705582   -6.37814204923    2.00000000000
     2.11024676395    8.44098705582   -6.37814204923    2.00000000000
     8.44098705582    2.11024676395   -6.37814204923    2.00000000000
     8.44098705582   -2.11024676395   -6.37814204923    2.00000000000
     2.11024676395   -8.44098705582   -6.37814204923    2.00000000000
    -2.11024676395   -8.44098705582   -6.37814204923    2.00000000000
    -8.44098705582   -2.11024676395   -6.37814204923    2.00000000000
   -10.55169157031    2.11070451449   -2.14923989662   -2.00000000000
    -2.11070451449   10.55169157031   -2.14923989662   -2.00000000000
     2.11070451449   10.55169157031   -2.14923989662   -2.00000000000
    10.55169157031    2.11070451449   -2.14923989662   -2.00000000000
    10.55169157031   -2.11070451449   -2.14923989662   -2.00000000000
     2.11070451449  -10.55169157031   -2.14923989662   -2.00000000000
    -2.11070451449  -10.55169157031   -2.14923989662   -2.00000000000
   -10.55169157031   -2.11070451449   -2.14923989662   -2.00000000000
    -6.33074029186    6.33074029186   -6.37814204923   -2.00000000000
     6.33074029186    6.33074029186   -6.37814204923   -2.00000000000
     6.33074029186   -6.33074029186   -6.37814204923   -2.00000000000
    -6.33074029186   -6.33074029186   -6.37814204923   -2.00000000000
   -10.55307845305    4.22049352791    0.00772802266   -2.00000000000
    -4.22049352791   10.55307845305    0.00772802266   -2.00000000000
     4.22049352791   10.55307845305    0.00772802266   -2.00000000000
    10.55307845305    4.22049352791    0.00772802266   -2.00000000000
    10.55307845305   -4.22049352791    0.00772802266   -2.00000000000
     4.22049352791  -10.55307845305    0.00772802266   -2.00000000000
    -4.22049352791  -10.55307845305    0.00772802266   -2.00000000000
   -10.55307845305   -4.22049352791    0.00772802266   -2.00000000000
   -10.55123381977    0.00000000000   -4.26789528527   -2.00000000000
    -8.44098705582    6.33074029186   -4.26789528527   -2.00000000000
    -6.33074029186    8.44098705582   -4.26789528527   -2.00000000000
     0.00000000000   10.55123381977   -4.26789528527   -2.00000000000
     6.33074029186    8.44098705582   -4.26789528527   -2.00000000000
     8.44098705582    6.33074029186   -4.26789528527   -2.00000000000
    10.55123381977    0.00000000000   -4.26789528527   -2.00000000000
     8.44098705582   -6.33074029186   -4.26789528527   -2.00000000000
     6.33074029186   -8.44098705582   -4.26789528527   -2.00000000000
     0.00000000000  -10.55123381977   -4.26789528527   -2.00000000000
    -6.33074029186   -8.44098705582   -4.26789528527   -2.00000000000
    -8.44098705582   -6.33074029186   -4.26789528527   -2.00000000000
    -8.44098705582    4.22049352791   -6.37814204923   -2.00000000000
    -4.22049352791    8.44098705582   -6.37814204923   -2.00000000000
     4.22049352791    8.44098705582   -6.37814204923   -2.00000000000
     8.44098705582    4.22049352791   -6.37814204923   -2.00000000000
     8.44098705582   -4.22049352791   -6.37814204923   -2.00000000000
     4.22049352791   -8.44098705582   -6.37814204923   -2.00000000000
    -4.22049352791   -8.44098705582   -6.37814204923   -2.00000000000
    -8.44098705582   -4.22049352791   -6.37814204923   -2.00000000000
   -10.55072118099    4.22049352791   -2.14445912302    2.00000000000
    -4.22049352791   10.55072118099   -2.14445912302    2.00000000000
     4.22049352791   10.55072118099   -2.14445912302    2.00000000000
    10.55072118099    4.22049352791   -2.14445912302    2.00000000000
    10.55072118099   -4.22049352791   -2.14445912302    2.00000000000
     4.22049352791  -10.55072118099   -2.14445912302    2.00000000000
    -4.22049352791  -10.55072118099   -2.14445912302    2.00000000000
   -10.55072118099   -4.22049352791   -2.14445912302    2.00000000000
   -10.55123381977    2.11024676395   -4.26789528527    2.00000000000
    -2.11024676395   10.55123381977   -4.26789528527    2.00000000000
     2.11024676395   10.55123381977   -4.26789528527    2.00000000000
    10.55123381977    2.11024676395   -4.26789528527    2.00000000000
    10.55123381977   -2.11024676395   -4.26789528527    2.00000000000
     2.11024676395  -10.55123381977   -4.26789528527    2.00000000000
    -2.11024676395  -10.55123381977   -4.26789528527    2.00000000000
   -10.55123381977   -2.11024676395   -4.26789528527    2.00000000000
    -8.44098705582    8.44098705582    0.00000000000    2.00000000000
     8.44098705582    8.44098705582    0.00000000000    2.00000000000
     8.44098705582   -8.44098705582    0.00000000000    2.00000000000
    -8.44098705582   -8.44098705582    0.00000000000    2.00000000000
    -8.44098705582    8.44098705582   -2.14129966123   -2.00000000000
     8.44098705582    8.44098705582   -2.14129966123   -2.00000000000
     8.44098705582   -8.44098705582   -2.14129966123   -2.00000000000
    -8.44098705582   -8.44098705582   -2.14129966123   -2.00000000000
   -10.55123381977    4.22049352791   -4.26789528527   -2.00000000000
    -4.22049352791   10.55123381977   -4.26789528527   -2.00000000000
     4.22049352791   10.55123381977   -4.26789528527   -2.00000000000
    10.55123381977    4.22049352791   -4.26789528527   -2.00000000000
    10.55123381977   -4.22049352791   -4.26789528527   -2.00000000000
     4.22049352791  -10.55123381977   -4.26789528527   -2.00000000000
    -4.22049352791  -10.55123381977   -4.26789528527   -2.00000000000
   -10.55123381977   -4.22049352791   -4.26789528527   -2.00000000000
   -10.55242967836    6.32954443328   -0.04367284424    2.00000000000
    -6.32954443328   10.55242967836   -0.04367284424    2.00000000000
     6.32954443328   10.55242967836   -0.04367284424    2.00000000000
    10.55242967836    6.32954443328   -0.04367284424    2.00000000000
    10.55242967836   -6.32954443328   -0.04367284424    2.00000000000
     6.32954443328  -10.55242967836   -0.04367284424    2.00000000000
    -6.32954443328  -10.55242967836   -0.04367284424    2.00000000000
   -10.55242967836   -6.32954443328   -0.04367284424    2.00000000000
   -10.55123381977    0.00000000000   -6.37814204923    2.00000000000
    -8.44098705582    6.33074029186   -6.37814204923    2.00000000000
    -6.33074029186    8.44098705582   -6.37814204923    2.00000000000
     0.00000000000   10.55123381977   -6.37814204923    2.00000000000
     6.33074029186    8.44098705582   -6.37814204923    2.00000000000
     8.44098705582    6.33074029186   -6.37814204923    2.00000000000
    10.55123381977    0.00000000000   -6.37814204923    2.00000000000
     8.44098705582   -6.33074029186   -6.37814204923    2.00000000000
     6.33074029186   -8.44098705582   -6.37814204923    2.00000000000
     0.00000000000  -10.55123381977   -6.37814204923    2.00000000000
    -6.33074029186   -8.44098705582   -6.37814204923    2.00000000000
    -8.44098705582   -6.33074029186   -6.37814204923    2.00000000000
   -10.55169157031    6.33028254133   -2.14923989662   -2.00000000000
    -6.33028254133   10.55169157031   -2.14923989662   -2.00000000000
     6.33028254133   10.55169157031   -2.14923989662   -2.00000000000
    10.55169157031    6.33028254133   -2.14923989662   -2.00000000000
    10.55169157031   -6.33028254133   -2.14923989662   -2.00000000000
     6.33028254133  -10.55169157031   -2.14923989662   -2.00000000000
    -6.33028254133  -10.55169157031   -2.14923989662   -2.00000000000
   -10.55169157031   -6.33028254133   -2.14923989662   -2.00000000000
   -10.55123381977    2.11024676395   -6.37814204923   -2.00000000000
    -2.11024676395   10.55123381977   -6.37814204923   -2.00000000000
     2.11024676395   10.55123381977   -6.37814204923   -2.00000000000
    10.55123381977    2.11024676395   -6.37814204923   -2.00000000000
    10.55123381977   -2.11024676395   -6.37814204923   -2.00000000000
     2.11024676395  -10.55123381977   -6.37814204923   -2.00000000000
    -2.11024676395  -10.55123381977   -6.37814204923   -2.00000000000
   -10.55123381977   -2.11024676395   -6.37814204923   -2.00000000000
   -12.66148058373    0.00000000000   -0.04269731856    2.00000000000
     0.00000000000   12.66148058373   -0.04269731856    2.00000000000
    12.66148058373    0.00000000000   -0.04269731856    2.00000000000
     0.00000000000  -12.66148058373   -0.04269731856    2.00000000000
    -8.44098705582    8.44098705582   -4.26789528527    2.00000000000
     8.44098705582    8.44098705582   -4.26789528527    2.00000000000
     8.44098705582   -8.44098705582   -4.26789528527    2.00000000000
    -8.44098705582   -8.44098705582   -4.26789528527    2.00000000000
   -12.66148058373    2.11209139723    0.00772802266   -2.00000000000
    -2.11209139723   12.66148058373    0.00772802266   -2.00000000000
     2.11209139723   12.66148058373    0.00772802266   -2.00000000000
    12.66148058373    2.11209139723    0.00772802266   -2.00000000000
    12.66148058373   -2.11209139723    0.00772802266   -2.00000000000
     2.11209139723  -12.66148058373    0.00772802266   -2.00000000000
    -2.11209139723  -12.66148058373    0.00772802266   -2.00000000000
   -12.66148058373   -2.11209139723    0.00772802266   -2.00000000000
   -12.66148058373    0.00000000000   -2.15129719490   -2.00000000000
     0.00000000000   12.66148058373   -2.15129719490   -2.00000000000
    12.66148058373    0.00000000000   -2.15129719490   -2.00000000000
     0.00000000000  -12.66148058373   -2.15129719490   -2.00000000000
   -12.66148058373    2.10973412517   -2.14445912302    2.00000000000
    -2.10973412517   12.66148058373   -2.14445912302    2.00000000000
     2.10973412517   12.66148058373   -2.14445912302    2.00000000000
    12.66148058373    2.10973412517   -2.14445912302    2.00000000000
    12.66148058373   -2.10973412517   -2.14445912302    2.00000000000
     2.10973412517  -12.66148058373   -2.14445912302    2.00000000000
    -2.10973412517  -12.66148058373   -2.14445912302    2.00000000000
   -12.66148058373   -2.10973412517   -2.14445912302    2.00000000000
   -10.55123381977    6.33074029186   -4.26789528527    2.00000000000
    -6.33074029186   10.55123381977   -4.26789528527    2.00000000000
     6.33074029186   10.55123381977   -4.26789528527    2.00000000000
    10.55123381977    6.33074029186   -4.26789528527    2.00000000000
    10.55123381977   -6.33074029186   -4.26789528527    2.00000000000
     6.33074029186  -10.55123381977   -4.26789528527    2.00000000000
    -6.33074029186  -10.55123381977   -4.26789528527    2.00000000000
   -10.55123381977   -6.33074029186   -4.26789528527    2.00000000000
   -10.55123381977    4.22049352791   -6.37814204923    2.00000000000
    -4.22049352791   10.55123381977   -6.37814204923    2.00000000000
     4.22049352791   10.55123381977   -6.37814204923    2.00000000000
    10.55123381977    4.22049352791   -6.37814204923    2.00000000000
    10.55123381977   -4.22049352791   -6.37814204923    2.00000000000
     4.22049352791  -10.55123381977   -6.37814204923    2.00000000000
    -4.22049352791  -10.55123381977   -6.37814204923    2.00000000000
   -10.55123381977   -4.22049352791   -6.37814204923    2.00000000000
   -12.66148058373    4.22049352791   -0.03992370948    2.00000000000
    -4.22049352791   12.66148058373   -0.03992370948    2.00000000000
     4.22049352791   12.66148058373   -0.03992370948    2.00000000000
    12.66148058373    4.22049352791   -0.03992370948    2.00000000000
    12.66148058373   -4.22049352791   -0.03992370948    2.00000000000
     4.22049352791  -12.66148058373   -0.03992370948    2.00000000000
    -4.22049352791  -12.66148058373   -0.03992370948    2.00000000000
   -12.66148058373   -4.22049352791   -0.03992370948    2.00000000000
   -12.66148058373    0.00000000000   -4.26789528527    2.00000000000
     0.00000000000   12.66148058373   -4.26789528527    2.00000000000
    12.66148058373    0.00000000000   -4.26789528527    2.00000000000
     0.00000000000  -12.66148058373   -4.26789528527    2.00000000000
   -12.66148058373    4.22049352791   -2.15028985266   -2.00000000000
    -4.22049352791   12.66148058373   -2.15028985266   -2.00000000000
     4.22049352791   12.66148058373   -2.15028985266   -2.00000000000
    12.66148058373    4.22049352791   -2.15028985266   -2.00000000000
    12.66148058373   -4.22049352791   -2.15028985266   -2.00000000000
     4.22049352791  -12.66148058373   -2.15028985266   -2.00000000000
    -4.22049352791  -12.66148058373   -2.15028985266   -2.00000000000
   -12.66148058373   -4.22049352791   -2.15028985266   -2.00000000000
   -10.56117131241    8.44098705582    0.00567209089   -2.00000000000
    -8.44098705582   10.56117131241    0.00567209089   -2.00000000000
     8.44098705582   10.56117131241    0.00567209089   -2.00000000000
    10.56117131241    8.44098705582    0.00567209089   -2.00000000000
    10.56117131241   -8.44098705582    0.00567209089   -2.00000000000
     8.44098705582  -10.56117131241    0.00567209089   -2.00000000000
    -8.44098705582  -10.56117131241    0.00567209089   -2.00000000000
   -10.56117131241   -8.44098705582    0.00567209089   -2.00000000000
   -12.66148058373    2.11024676395   -4.26789528527   -2.00000000000
    -2.11024676395   12.66148058373   -4.26789528527   -2.00000000000
     2.11024676395   12.66148058373   -4.26789528527   -2.00000000000
    12.66148058373    2.11024676395   -4.26789528527   -2.00000000000
    12.66148058373   -2.11024676395   -4.26789528527   -2.00000000000
     2.11024676395  -12.66148058373   -4.26789528527   -2.00000000000
    -2.11024676395  -12.66148058373   -4.26789528527   -2.00000000000
   -12.66148058373   -2.11024676395   -4.26789528527   -2.00000000000
    -8.44098705582    8.44098705582   -6.37814204923   -2.00000000000
     8.44098705582    8.44098705582   -6.37814204923   -2.00000000000
     8.44098705582   -8.44098705582   -6.37814204923   -2.00000000000
    -8.44098705582   -8.44098705582   -6.37814204923   -2.00000000000
   -10.54803992736    8.44098705582   -2.14155206950    2.00000000000
    -8.44098705582   10.54803992736   -2.14155206950    2.00000000000
     8.44098705582   10.54803992736   -2.14155206950    2.00000000000
    10.54803992736    8.44098705582   -2.14155206950    2.00000000000
    10.54803992736   -8.44098705582   -2.14155206950    2.00000000000
     8.44098705582  -10.54803992736   -2.14155206950    2.00000000000
    -8.44098705582  -10.54803992736   -2.14155206950    2.00000000000
   -10.54803992736   -8.44098705582   -2.14155206950    2.00000000000
   -10.55123381977    6.33074029186   -6.37814204923   -2.00000000000
    -6.33074029186   10.55123381977   -6.37814204923   -2.00000000000
     6.33074029186   10.55123381977   -6.37814204923   -2.00000000000
    10.55123381977    6.33074029186   -6.37814204923   -2.00000000000
    10.55123381977   -6.33074029186   -6.37814204923   -2.00000000000
     6.33074029186  -10.55123381977   -6.37814204923   -2.00000000000
    -6.33074029186  -10.55123381977   -6.37814204923   -2.00000000000
   -10.55123381977   -6.33074029186   -6.37814204923   -2.00000000000
   -12.66148058373    4.22049352791   -4.26789528527    2.00000000000
    -4.22049352791   12.66148058373   -4.26789528527    2.00000000000
     4.22049352791   12.66148058373   -4.26789528527    2.00000000000
    12.66148058373    4.22049352791   -4.26789528527    2.00000000000
    12.66148058373   -4.22049352791   -4.26789528527    2.00000000000
     4.22049352791  -12.66148058373   -4.26789528527    2.00000000000
    -4.22049352791  -12.66148058373   -4.26789528527    2.00000000000
   -12.66148058373   -4.22049352791   -4.26789528527    2.00000000000
   -12.66148058373    6.32889565859    0.00772802266   -2.00000000000
    -6.32889565859   12.66148058373    0.00772802266   -2.00000000000
     6.32889565859   12.66148058373    0.00772802266   -2.00000000000
    12.66148058373    6.32889565859    0.00772802266   -2.00000000000
    12.66148058373   -6.32889565859    0.00772802266   -2.00000000000
     6.32889565859  -12.66148058373    0.00772802266   -2.00000000000
    -6.32889565859  -12.66148058373    0.00772802266   -2.00000000000
   -12.66148058373   -6.32889565859    0.00772802266   -2.00000000000
   -10.55123381977    8.44098705582   -4.26789528527   -2.00000000000
    -8.44098705582   10.55123381977   -4.26789528527   -2.00000000000
     8.44098705582   10.55123381977   -4.26789528527   -2.00000000000
    10.55123381977    8.44098705582   -4.26789528527   -2.00000000000
    10.55123381977   -8.44098705582   -4.26789528527   -2.00000000000
     8.44098705582  -10.55123381977   -4.26789528527   -2.00000000000
    -8.44098705582  -10.55123381977   -4.26789528527   -2.00000000000
   -10.55123381977   -8.44098705582   -4.26789528527   -2.00000000000
   -12.66148058373    0.00000000000   -6.37814204923   -2.00000000000
     0.00000000000   12.66148058373   -6.37814204923   -2.00000000000
    12.66148058373    0.00000000000   -6.37814204923   -2.00000000000
     0.00000000000  -12.66148058373   -6.37814204923   -2.00000000000
   -12.66148058373    6.33125293065   -2.14445912302    2.00000000000
    -6.33125293065   12.66148058373   -2.14445912302    2.00000000000
     6.33125293065   12.66148058373   -2.14445912302    2.00000000000
    12.66148058373    6.33125293065   -2.14445912302    2.00000000000
    12.66148058373   -6.33125293065   -2.14445912302    2.00000000000
     6.33125293065  -12.66148058373   -2.14445912302    2.00000000000
    -6.33125293065  -12.66148058373   -2.14445912302    2.00000000000
   -12.66148058373   -6.33125293065   -2.14445912302    2.00000000000
   -12.66148058373    2.11024676395   -6.37814204923    2.00000000000
    -2.11024676395   12.66148058373   -6.37814204923    2.00000000000
     2.11024676395   12.66148058373   -6.37814204923    2.00000000000
    12.66148058373    2.11024676395   -6.37814204923    2.00000000000
    12.66148058373   -2.11024676395   -6.37814204923    2.00000000000
     2.11024676395  -12.66148058373   -6.37814204923    2.00000000000
    -2.11024676395  -12.66148058373   -6.37814204923    2.00000000000
   -12.66148058373   -2.11024676395   -6.37814204923    2.00000000000
   -14.76178985505    0.00000000000    0.00567209089   -2.00000000000
     0.00000000000   14.76178985505    0.00567209089   -2.00000000000
    14.76178985505    0.00000000000    0.00567209089   -2.00000000000
     0.00000000000  -14.76178985505    0.00567209089   -2.00000000000
   -12.66148058373    6.33074029186   -4.26789528527   -2.00000000000
    -6.33074029186   12.66148058373   -4.26789528527   -2.00000000000
     6.33074029186   12.66148058373   -4.26789528527   -2.00000000000
    12.66148058373    6.33074029186   -4.26789528527   -2.00000000000
    12.66148058373   -6.33074029186   -4.26789528527   -2.00000000000
     6.33074029186  -12.66148058373   -4.26789528527   -2.00000000000
    -6.33074029186  -12.66148058373   -4.26789528527   -2.00000000000
   -12.66148058373   -6.33074029186   -4.26789528527   -2.00000000000
   -12.66148058373    4.22049352791   -6.37814204923   -2.00000000000
    -4.22049352791   12.66148058373   -6.37814204923   -2.00000000000
     4.22049352791   12.66148058373   -6.37814204923   -2.00000000000
    12.66148058373    4.22049352791   -6.37814204923   -2.00000000000
    12.66148058373   -4.22049352791   -6.37814204923   -2.00000000000
     4.22049352791  -12.66148058373   -6.37814204923   -2.00000000000
    -4.22049352791  -12.66148058373   -6.37814204923   -2.00000000000
   -12.66148058373   -4.22049352791   -6.37814204923   -2.00000000000
   -14.77053148910    2.11144262254   -0.04367284424    2.00000000000
    -2.11144262254   14.77053148910   -0.04367284424    2.00000000000
     2.11144262254   14.77053148910   -0.04367284424    2.00000000000
    14.77053148910    2.11144262254   -0.04367284424    2.00000000000
    14.77053148910   -2.11144262254   -0.04367284424    2.00000000000
     2.11144262254  -14.77053148910   -0.04367284424    2.00000000000
    -2.11144262254  -14.77053148910   -0.04367284424    2.00000000000
   -14.77053148910   -2.11144262254   -0.04367284424    2.00000000000
   -10.55242967836   10.55242967836   -0.04367284424    2.00000000000
    10.55242967836   10.55242967836   -0.04367284424    2.00000000000
    10.55242967836  -10.55242967836   -0.04367284424    2.00000000000
   -10.55242967836  -10.55242967836   -0.04367284424    2.00000000000
   -14.77492124009    0.00000000000   -2.14155206950    2.00000000000
     0.00000000000   14.77492124009   -2.14155206950    2.00000000000
    14.77492124009    0.00000000000   -2.14155206950    2.00000000000
     0.00000000000  -14.77492124009   -2.14155206950    2.00000000000
   -10.55123381977    8.44098705582   -6.37814204923    2.00000000000
    -8.44098705582   10.55123381977   -6.37814204923    2.00000000000
     8.44098705582   10.55123381977   -6.37814204923    2.00000000000
    10.55123381977    8.44098705582   -6.37814204923    2.00000000000
    10.55123381977   -8.44098705582   -6.37814204923    2.00000000000
     8.44098705582  -10.55123381977   -6.37814204923    2.00000000000
    -8.44098705582  -10.55123381977   -6.37814204923    2.00000000000
   -10.55123381977   -8.44098705582   -6.37814204923    2.00000000000
   -14.77126959714    2.11070451449   -2.14923989662   -2.00000000000
    -2.11070451449   14.77126959714   -2.14923989662   -2.00000000000
     2.11070451449   14.77126959714   -2.14923989662   -2.00000000000
    14.77126959714    2.11070451449   -2.14923989662   -2.00000000000
    14.77126959714   -2.11070451449   -2.14923989662   -2.00000000000
     2.11070451449  -14.77126959714   -2.14923989662   -2.00000000000
    -2.11070451449  -14.77126959714   -2.14923989662   -2.00000000000
   -14.77126959714   -2.11070451449   -2.14923989662   -2.00000000000
   -10.55169157031   10.55169157031   -2.14923989662   -2.00000000000
    10.55169157031   10.55169157031   -2.14923989662   -2.00000000000
    10.55169157031  -10.55169157031   -2.14923989662   -2.00000000000
   -10.55169157031  -10.55169157031   -2.14923989662   -2.00000000000
   -12.66148058373    8.44098705582   -0.04269731856    2.00000000000
    -8.44098705582   12.66148058373   -0.04269731856    2.00000000000
     8.44098705582   12.66148058373   -0.04269731856    2.00000000000
    12.66148058373    8.44098705582   -0.04269731856    2.00000000000
    12.66148058373   -8.44098705582   -0.04269731856    2.00000000000
     8.44098705582  -12.66148058373   -0.04269731856    2.00000000000
    -8.44098705582  -12.66148058373   -0.04269731856    2.00000000000
   -12.66148058373   -8.44098705582   -0.04269731856    2.00000000000
   -14.76988271440    4.22049352791    0.00772802266   -2.00000000000
    -4.22049352791   14.76988271440    0.00772802266   -2.00000000000
     4.22049352791   14.76988271440    0.00772802266   -2.00000000000
    14.76988271440    4.22049352791    0.00772802266   -2.00000000000
    14.76988271440   -4.22049352791    0.00772802266   -2.00000000000
     4.22049352791  -14.76988271440    0.00772802266   -2.00000000000
    -4.22049352791  -14.76988271440    0.00772802266   -2.00000000000
   -14.76988271440   -4.22049352791    0.00772802266   -2.00000000000
   -12.66148058373    8.44098705582   -2.15129719490   -2.00000000000
    -8.44098705582   12.66148058373   -2.15129719490   -2.00000000000
     8.44098705582   12.66148058373   -2.15129719490   -2.00000000000
    12.66148058373    8.44098705582   -2.15129719490   -2.00000000000
    12.66148058373   -8.44098705582   -2.15129719490   -2.00000000000
     8.44098705582  -12.66148058373   -2.15129719490   -2.00000000000
    -8.44098705582  -12.66148058373   -2.15129719490   -2.00000000000
   -12.66148058373   -8.44098705582   -2.15129719490   -2.00000000000
   -14.77172734768    0.00000000000   -4.26789528527   -2.00000000000
     0.00000000000   14.77172734768   -4.26789528527   -2.00000000000
    14.77172734768    0.00000000000   -4.26789528527   -2.00000000000
     0.00000000000  -14.77172734768   -4.26789528527   -2.00000000000
   -14.77223998647    4.22049352791   -2.14445912302    2.00000000000
    -4.22049352791   14.77223998647   -2.14445912302    2.00000000000
     4.22049352791   14.77223998647   -2.14445912302    2.00000000000
    14.77223998647    4.22049352791   -2.14445912302    2.00000000000
    14.77223998647   -4.22049352791   -2.14445912302    2.00000000000
     4.22049352791  -14.77223998647   -2.14445912302    2.00000000000
    -4.22049352791  -14.77223998647   -2.14445912302    2.00000000000
   -14.77223998647   -4.22049352791   -2.14445912302    2.00000000000
   -14.77172734768    2.11024676395   -4.26789528527    2.00000000000
   -10.55123381977   10.55123381977   -4.26789528527    2.00000000000
    -2.11024676395   14.77172734768   -4.26789528527    2.00000000000
     2.11024676395   14.77172734768   -4.26789528527    2.00000000000
    10.55123381977   10.55123381977   -4.26789528527    2.00000000000
    14.77172734768    2.11024676395   -4.26789528527    2.00000000000
    14.77172734768   -2.11024676395   -4.26789528527    2.00000000000
    10.55123381977  -10.55123381977   -4.26789528527    2.00000000000
     2.11024676395  -14.77172734768   -4.26789528527    2.00000000000
    -2.11024676395  -14.77172734768   -4.26789528527    2.00000000000
   -10.55123381977  -10.55123381977   -4.26789528527    2.00000000000
   -14.77172734768   -2.11024676395   -4.26789528527    2.00000000000
   -12.66148058373    6.33074029186   -6.37814204923    2.00000000000
    -6.33074029186   12.66148058373   -6.37814204923    2.00000000000
     6.33074029186   12.66148058373   -6.37814204923    2.00000000000
    12.66148058373    6.33074029186   -6.37814204923    2.00000000000
    12.66148058373   -6.33074029186   -6.37814204923    2.00000000000
     6.33074029186  -12.66148058373   -6.37814204923    2.00000000000
    -6.33074029186  -12.66148058373   -6.37814204923    2.00000000000
   -12.66148058373   -6.33074029186   -6.37814204923    2.00000000000
   -12.66148058373    8.44098705582   -4.26789528527    2.00000000000
    -8.44098705582   12.66148058373   -4.26789528527    2.00000000000
     8.44098705582   12.66148058373   -4.26789528527    2.00000000000
    12.66148058373    8.44098705582   -4.26789528527    2.00000000000
    12.66148058373   -8.44098705582   -4.26789528527    2.00000000000
     8.44098705582  -12.66148058373   -4.26789528527    2.00000000000
    -8.44098705582  -12.66148058373   -4.26789528527    2.00000000000
   -12.66148058373   -8.44098705582   -4.26789528527    2.00000000000
   -14.77172734768    4.22049352791   -4.26789528527   -2.00000000000
    -4.22049352791   14.77172734768   -4.26789528527   -2.00000000000
     4.22049352791   14.77172734768   -4.26789528527   -2.00000000000
    14.77172734768    4.22049352791   -4.26789528527   -2.00000000000
    14.77172734768   -4.22049352791   -4.26789528527   -2.00000000000
     4.22049352791  -14.77172734768   -4.26789528527   -2.00000000000
    -4.22049352791  -14.77172734768   -4.26789528527   -2.00000000000
   -14.77172734768   -4.22049352791   -4.26789528527   -2.00000000000
   -14.77053148910    6.32954443328   -0.04367284424    2.00000000000
    -6.32954443328   14.77053148910   -0.04367284424    2.00000000000
     6.32954443328   14.77053148910   -0.04367284424    2.00000000000
    14.77053148910    6.32954443328   -0.04367284424    2.00000000000
    14.77053148910   -6.32954443328   -0.04367284424    2.00000000000
     6.32954443328  -14.77053148910   -0.04367284424    2.00000000000
    -6.32954443328  -14.77053148910   -0.04367284424    2.00000000000
   -14.77053148910   -6.32954443328   -0.04367284424    2.00000000000
   -14.77172734768    0.00000000000   -6.37814204923    2.00000000000
     0.00000000000   14.77172734768   -6.37814204923    2.00000000000
    14.77172734768    0.00000000000   -6.37814204923    2.00000000000
     0.00000000000  -14.77172734768   -6.37814204923    2.00000000000
   -14.77126959714    6.33028254133   -2.14923989662   -2.00000000000
    -6.33028254133   14.77126959714   -2.14923989662   -2.00000000000
     6.33028254133   14.77126959714   -2.14923989662   -2.00000000000
    14.77126959714    6.33028254133   -2.14923989662   -2.00000000000
    14.77126959714   -6.33028254133   -2.14923989662   -2.00000000000
     6.33028254133  -14.77126959714   -2.14923989662   -2.00000000000
    -6.33028254133  -14.77126959714   -2.14923989662   -2.00000000000
   -14.77126959714   -6.33028254133   -2.14923989662   -2.00000000000
   -14.77172734768    2.11024676395   -6.37814204923   -2.00000000000
   -10.55123381977   10.55123381977   -6.37814204923   -2.00000000000
    -2.11024676395   14.77172734768   -6.37814204923   -2.00000000000
     2.11024676395   14.77172734768   -6.37814204923   -2.00000000000
    10.55123381977   10.55123381977   -6.37814204923   -2.00000000000
    14.77172734768    2.11024676395   -6.37814204923   -2.00000000000
    14.77172734768   -2.11024676395   -6.37814204923   -2.00000000000
    10.55123381977  -10.55123381977   -6.37814204923   -2.00000000000
     2.11024676395  -14.77172734768   -6.37814204923   -2.00000000000
    -2.11024676395  -14.77172734768   -6.37814204923   -2.00000000000
   -10.55123381977  -10.55123381977   -6.37814204923   -2.00000000000
   -14.77172734768   -2.11024676395   -6.37814204923   -2.00000000000
   -12.66148058373   10.55307845305    0.00772802266   -2.00000000000
   -10.55307845305   12.66148058373    0.00772802266   -2.00000000000
    10.55307845305   12.66148058373    0.00772802266   -2.00000000000
    12.66148058373   10.55307845305    0.00772802266   -2.00000000000
    12.66148058373  -10.55307845305    0.00772802266   -2.00000000000
    10.55307845305  -12.66148058373    0.00772802266   -2.00000000000
   -10.55307845305  -12.66148058373    0.00772802266   -2.00000000000
   -12.66148058373  -10.55307845305    0.00772802266   -2.00000000000
   -12.66148058373    8.44098705582   -6.37814204923   -2.00000000000
    -8.44098705582   12.66148058373   -6.37814204923   -2.00000000000
     8.44098705582   12.66148058373   -6.37814204923   -2.00000000000
    12.66148058373    8.44098705582   -6.37814204923   -2.00000000000
    12.66148058373   -8.44098705582   -6.37814204923   -2.00000000000
     8.44098705582  -12.66148058373   -6.37814204923   -2.00000000000
    -8.44098705582  -12.66148058373   -6.37814204923   -2.00000000000
   -12.66148058373   -8.44098705582   -6.37814204923   -2.00000000000
   -12.66148058373   10.55072118099   -2.14445912302    2.00000000000
   -10.55072118099   12.66148058373   -2.14445912302    2.00000000000
    10.55072118099   12.66148058373   -2.14445912302    2.00000000000
    12.66148058373   10.55072118099   -2.14445912302    2.00000000000
    12.66148058373  -10.55072118099   -2.14445912302    2.00000000000
    10.55072118099  -12.66148058373   -2.14445912302    2.00000000000
   -10.55072118099  -12.66148058373   -2.14445912302    2.00000000000
   -12.66148058373  -10.55072118099   -2.14445912302    2.00000000000
   -14.77172734768    6.33074029186   -4.26789528527    2.00000000000
    -6.33074029186   14.77172734768   -4.26789528527    2.00000000000
     6.33074029186   14.77172734768   -4.26789528527    2.00000000000
    14.77172734768    6.33074029186   -4.26789528527    2.00000000000
    14.77172734768   -6.33074029186   -4.26789528527    2.00000000000
     6.33074029186  -14.77172734768   -4.26789528527    2.00000000000
    -6.33074029186  -14.77172734768   -4.26789528527    2.00000000000
   -14.77172734768   -6.33074029186   -4.26789528527    2.00000000000
   -14.77172734768    4.22049352791   -6.37814204923    2.00000000000
    -4.22049352791   14.77172734768   -6.37814204923    2.00000000000
     4.22049352791   14.77172734768   -6.37814204923    2.00000000000
    14.77172734768    4.22049352791   -6.37814204923    2.00000000000
    14.77172734768   -4.22049352791   -6.37814204923    2.00000000000
     4.22049352791  -14.77172734768   -6.37814204923    2.00000000000
    -4.22049352791  -14.77172734768   -6.37814204923    2.00000000000
   -14.77172734768   -4.22049352791   -6.37814204923    2.00000000000
   -16.88197411163    0.00000000000    0.00000000000    2.00000000000
     0.00000000000   16.88197411163    0.00000000000    2.00000000000
    16.88197411163    0.00000000000    0.00000000000    2.00000000000
     0.00000000000  -16.88197411163    0.00000000000    2.00000000000
   -14.76178985505    8.44098705582    0.00567209089   -2.00000000000
    -8.44098705582   14.76178985505    0.00567209089   -2.00000000000
     8.44098705582   14.76178985505    0.00567209089   -2.00000000000
    14.76178985505    8.44098705582    0.00567209089   -2.00000000000
    14.76178985505   -8.44098705582    0.00567209089   -2.00000000000
     8.44098705582  -14.76178985505    0.00567209089   -2.00000000000
    -8.44098705582  -14.76178985505    0.00567209089   -2.00000000000
   -14.76178985505   -8.44098705582    0.00567209089   -2.00000000000
   -16.88197411163    2.12018425659    0.00567209089   -2.00000000000
    -2.12018425659   16.88197411163    0.00567209089   -2.00000000000
     2.12018425659   16.88197411163    0.00567209089   -2.00000000000
    16.88197411163    2.12018425659    0.00567209089   -2.00000000000
    16.88197411163   -2.12018425659    0.00567209089   -2.00000000000
     2.12018425659  -16.88197411163    0.00567209089   -2.00000000000
    -2.12018425659  -16.88197411163    0.00567209089   -2.00000000000
   -16.88197411163   -2.12018425659    0.00567209089   -2.00000000000
   -16.88197411163    0.00000000000   -2.14129966123   -2.00000000000
     0.00000000000   16.88197411163   -2.14129966123   -2.00000000000
    16.88197411163    0.00000000000   -2.14129966123   -2.00000000000
     0.00000000000  -16.88197411163   -2.14129966123   -2.00000000000
   -12.66148058373   10.55123381977   -4.26789528527   -2.00000000000
   -10.55123381977   12.66148058373   -4.26789528527   -2.00000000000
    10.55123381977   12.66148058373   -4.26789528527   -2.00000000000
    12.66148058373   10.55123381977   -4.26789528527   -2.00000000000
    12.66148058373  -10.55123381977   -4.26789528527   -2.00000000000
    10.55123381977  -12.66148058373   -4.26789528527   -2.00000000000
   -10.55123381977  -12.66148058373   -4.26789528527   -2.00000000000
   -12.66148058373  -10.55123381977   -4.26789528527   -2.00000000000
   -16.88197411163    2.10705287155   -2.14155206950    2.00000000000
    -2.10705287155   16.88197411163   -2.14155206950    2.00000000000
     2.10705287155   16.88197411163   -2.14155206950    2.00000000000
    16.88197411163    2.10705287155   -2.14155206950    2.00000000000
    16.88197411163   -2.10705287155   -2.14155206950    2.00000000000
     2.10705287155  -16.88197411163   -2.14155206950    2.00000000000
    -2.10705287155  -16.88197411163   -2.14155206950    2.00000000000
   -16.88197411163   -2.10705287155   -2.14155206950    2.00000000000
   -14.77492124009    8.44098705582   -2.14155206950    2.00000000000
    -8.44098705582   14.77492124009   -2.14155206950    2.00000000000
     8.44098705582   14.77492124009   -2.14155206950    2.00000000000
    14.77492124009    8.44098705582   -2.14155206950    2.00000000000
    14.77492124009   -8.44098705582   -2.14155206950    2.00000000000
     8.44098705582  -14.77492124009   -2.14155206950    2.00000000000
    -8.44098705582  -14.77492124009   -2.14155206950    2.00000000000
   -14.77492124009   -8.44098705582   -2.14155206950    2.00000000000
   -14.77172734768    6.33074029186   -6.37814204923   -2.00000000000
    -6.33074029186   14.77172734768   -6.37814204923   -2.00000000000
     6.33074029186   14.77172734768   -6.37814204923   -2.00000000000
    14.77172734768    6.33074029186   -6.37814204923   -2.00000000000
    14.77172734768   -6.33074029186   -6.37814204923   -2.00000000000
     6.33074029186  -14.77172734768   -6.37814204923   -2.00000000000
    -6.33074029186  -14.77172734768   -6.37814204923   -2.00000000000
   -14.77172734768   -6.33074029186   -6.37814204923   -2.00000000000
   -16.88197411163    4.22049352791   -0.04269731856    2.00000000000
    -4.22049352791   16.88197411163   -0.04269731856    2.00000000000
     4.22049352791   16.88197411163   -0.04269731856    2.00000000000
    16.88197411163    4.22049352791   -0.04269731856    2.00000000000
    16.88197411163   -4.22049352791   -0.04269731856    2.00000000000
     4.22049352791  -16.88197411163   -0.04269731856    2.00000000000
    -4.22049352791  -16.88197411163   -0.04269731856    2.00000000000
   -16.88197411163   -4.22049352791   -0.04269731856    2.00000000000
   -16.88197411163    0.00000000000   -4.26789528527    2.00000000000
     0.00000000000   16.88197411163   -4.26789528527    2.00000000000
    16.88197411163    0.00000000000   -4.26789528527    2.00000000000
     0.00000000000  -16.88197411163   -4.26789528527    2.00000000000
   -16.88197411163    4.22049352791   -2.15129719490   -2.00000000000
    -4.22049352791   16.88197411163   -2.15129719490   -2.00000000000
     4.22049352791   16.88197411163   -2.15129719490   -2.00000000000
    16.88197411163    4.22049352791   -2.15129719490   -2.00000000000
    16.88197411163   -4.22049352791   -2.15129719490   -2.00000000000
     4.22049352791  -16.88197411163   -2.15129719490   -2.00000000000
    -4.22049352791  -16.88197411163   -2.15129719490   -2.00000000000
   -16.88197411163   -4.22049352791   -2.15129719490   -2.00000000000
   -16.88197411163    2.11024676395   -4.26789528527   -2.00000000000
   -14.77172734768    8.44098705582   -4.26789528527   -2.00000000000
    -8.44098705582   14.77172734768   -4.26789528527   -2.00000000000
    -2.11024676395   16.88197411163   -4.26789528527   -2.00000000000
     2.11024676395   16.88197411163   -4.26789528527   -2.00000000000
     8.44098705582   14.77172734768   -4.26789528527   -2.00000000000
    14.77172734768    8.44098705582   -4.26789528527   -2.00000000000
    16.88197411163    2.11024676395   -4.26789528527   -2.00000000000
    16.88197411163   -2.11024676395   -4.26789528527   -2.00000000000
    14.77172734768   -8.44098705582   -4.26789528527   -2.00000000000
     8.44098705582  -14.77172734768   -4.26789528527   -2.00000000000
     2.11024676395  -16.88197411163   -4.26789528527   -2.00000000000
    -2.11024676395  -16.88197411163   -4.26789528527   -2.00000000000
    -8.44098705582  -14.77172734768   -4.26789528527   -2.00000000000
   -14.77172734768   -8.44098705582   -4.26789528527   -2.00000000000
   -16.88197411163   -2.11024676395   -4.26789528527   -2.00000000000
   -12.66148058373   10.55123381977   -6.37814204923    2.00000000000
   -10.55123381977   12.66148058373   -6.37814204923    2.00000000000
    10.55123381977   12.66148058373   -6.37814204923    2.00000000000
    12.66148058373   10.55123381977   -6.37814204923    2.00000000000
    12.66148058373  -10.55123381977   -6.37814204923    2.00000000000
    10.55123381977  -12.66148058373   -6.37814204923    2.00000000000
   -10.55123381977  -12.66148058373   -6.37814204923    2.00000000000
   -12.66148058373  -10.55123381977   -6.37814204923    2.00000000000
   -12.66148058373   12.66148058373   -0.03992370948    2.00000000000
    12.66148058373   12.66148058373   -0.03992370948    2.00000000000
    12.66148058373  -12.66148058373   -0.03992370948    2.00000000000
   -12.66148058373  -12.66148058373   -0.03992370948    2.00000000000
   -16.88197411163    4.22049352791   -4.26789528527    2.00000000000
    -4.22049352791   16.88197411163   -4.26789528527    2.00000000000
     4.22049352791   16.88197411163   -4.26789528527    2.00000000000
    16.88197411163    4.22049352791   -4.26789528527    2.00000000000
    16.88197411163   -4.22049352791   -4.26789528527    2.00000000000
     4.22049352791  -16.88197411163   -4.26789528527    2.00000000000
    -4.22049352791  -16.88197411163   -4.26789528527    2.00000000000
   -16.88197411163   -4.22049352791   -4.26789528527    2.00000000000
   -16.88197411163    6.32080279923    0.00567209089   -2.00000000000
    -6.32080279923   16.88197411163    0.00567209089   -2.00000000000
     6.32080279923   16.88197411163    0.00567209089   -2.00000000000
    16.88197411163    6.32080279923    0.00567209089   -2.00000000000
    16.88197411163   -6.32080279923    0.00567209089   -2.00000000000
     6.32080279923  -16.88197411163    0.00567209089   -2.00000000000
    -6.32080279923  -16.88197411163    0.00567209089   -2.00000000000
   -16.88197411163   -6.32080279923    0.00567209089   -2.00000000000
   -12.66148058373   12.66148058373   -2.15028985266   -2.00000000000
    12.66148058373   12.66148058373   -2.15028985266   -2.00000000000
    12.66148058373  -12.66148058373   -2.15028985266   -2.00000000000
   -12.66148058373  -12.66148058373   -2.15028985266   -2.00000000000
   -16.88197411163    0.00000000000   -6.37814204923   -2.00000000000
     0.00000000000   16.88197411163   -6.37814204923   -2.00000000000
    16.88197411163    0.00000000000   -6.37814204923   -2.00000000000
     0.00000000000  -16.88197411163   -6.37814204923   -2.00000000000
   -14.77053148910   10.55242967836   -0.04367284424    2.00000000000
   -10.55242967836   14.77053148910   -0.04367284424    2.00000000000
    10.55242967836   14.77053148910   -0.04367284424    2.00000000000
[...]
    540.84 MB is the minimal memory requirement for (T)
    379.14 MB is the minimal memory requirement for CCSD
 
 MP2 correlation energy [au]:       -1.090590054229
 
 LMP2 domain correlation energy contribution [au]:       -0.071180880391
 
 CPU time [min]:  4749.109                   Wall time [min]:   658.359
 
 
 Starting CCSD iterations...
 
                     Residual norm       Correlation Energy
 Iteration  1        0.244434057625       -1.067842507756
 Iteration  2        0.070798850033       -1.093212581725
 Iteration  3        0.025185859763       -1.098666379322
 Iteration  4        0.005793533211       -1.098555376608
 Iteration  5        0.001824297127       -1.098552937937
 Iteration  6        0.000481641947       -1.098590687157
 Iteration  7        0.000193261695       -1.098583112324
 Iteration  8        0.000061097781       -1.098577996612
 
 CCSD iteration has converged in  8 steps.
     1223.20 MB memory was utilized by CCSD
 
 T1 diagnostic:      1.197E-02            D1 diagnostic:      3.891E-02
 
 T1 contribution [au]:                         0.000000000000
 CCSD correlation energy [au]:                -0.070452919320
 
 CPU time [min]:  4754.338                   Wall time [min]:   659.099
 
 Calculation of (T) correction...
 
 Laplace threshold, nquadmin:  1.00E-03   4
 Number of quadrature points:    4
 
     1001.53 MB memory is utilized for (T)

 0%       25%       50%       75%       100%
 |---------|---------|---------|---------| 
 
 (T) correction [au]:                   -0.002907439771
 CCSD(T) correlation energy [au]:       -0.073360359092
 
 CPU time [min]:  4761.086                   Wall time [min]:   659.971
 
 MO:   101
 Number of atoms in domain:      36
 Number of atomic orbitals:    1548
 Number of atoms for local DF:   36
 Number of fitting functions:  3960 (100.00%)
 Number of occupied orbitals:    88
 Number of virtual  orbitals:  1371
 Number of Cholesky vectors:      7
 MP2 energy in ED [au]:          -0.070681652123
 Number of occupied LNOs:        44  (50.00%)
 Number of virtual  LNOs:       144  (10.50%)
 Number of Cholesky vectors:      6
 MP2 energy in LIS [au]:         -0.070417166846
 Correction for frozen LNO [au]: -0.000264485278     (0.374%)
 Number of NAFs:                512  (12.93%)
 CPU time [min]:  4798.395                   Wall time [min]:   665.106
 

 Direct DF-CCSD(T) calculation
 
 Convergence criterion:  1.0E-05
 
 Number of occupied/virtual/auxiliary orbitals:    44   144   512
   1028.73 MB is the minimal memory requirement for (T)
    740.68 MB is the minimal memory requirement for CCSD
 
 MP2 correlation energy [au]:       -1.297460494055
 
 LMP2 domain correlation energy contribution [au]:       -0.070417241132
 
 CPU time [min]:  4798.563                   Wall time [min]:   665.159
 
 
 Starting CCSD iterations...
 
                     Residual norm       Correlation Energy
 Iteration  1        0.255434740264       -1.290065479166
 Iteration  2        0.068966883496       -1.319942359858
 Iteration  3        0.023834572930       -1.324834885925
 Iteration  4        0.004907396265       -1.324805550175
 Iteration  5        0.001444705883       -1.324815745642
 Iteration  6        0.000331328284       -1.324831336140
 Iteration  7        0.000107026937       -1.324827326284
 Iteration  8        0.000030233730       -1.324826008961
 
 CCSD iteration has converged in  8 steps.
     2333.22 MB memory was utilized by CCSD
 
 T1 diagnostic:      1.137E-02            D1 diagnostic:      3.559E-02
 
 T1 contribution [au]:                         0.000000000000
 CCSD correlation energy [au]:                -0.070027262567
 
 CPU time [min]:  4815.282                   Wall time [min]:   667.601
 
 Calculation of (T) correction...
 
 Laplace threshold, nquadmin:  1.00E-03   4
 Number of quadrature points:    4
 
     2183.04 MB memory is utilized for (T)

 0%       25%       50%       75%       100%
 |---------|---------|---------|---------| 
 
 (T) correction [au]:                   -0.002775853146
 CCSD(T) correlation energy [au]:       -0.072803115713
 
 CPU time [min]:  4839.176                   Wall time [min]:   670.659
 
 MO:   102
 Number of atoms in domain:      36
 Number of atomic orbitals:    1548
 Number of atoms for local DF:   36
 Number of fitting functions:  3960 (100.00%)
 Number of occupied orbitals:    88
 Number of virtual  orbitals:  1371
 Number of Cholesky vectors:      7
 MP2 energy in ED [au]:          -0.070681685422
 Number of occupied LNOs:        44  (50.00%)
 Number of virtual  LNOs:       143  (10.43%)
 Number of Cholesky vectors:      6
 MP2 energy in LIS [au]:         -0.070415642584
 Correction for frozen LNO [au]: -0.000266042838     (0.376%)
 Number of NAFs:                508  (12.83%)
 CPU time [min]:  4876.459                   Wall time [min]:   675.788
 

 Direct DF-CCSD(T) calculation
 
 Convergence criterion:  1.0E-05
 
 Number of occupied/virtual/auxiliary orbitals:    44   143   508
   1013.18 MB is the minimal memory requirement for (T)
    730.90 MB is the minimal memory requirement for CCSD
 
 MP2 correlation energy [au]:       -1.288154706323
 
 LMP2 domain correlation energy contribution [au]:       -0.070415721474
 
 CPU time [min]:  4876.625                   Wall time [min]:   675.840
 
 
 Starting CCSD iterations...
 
                     Residual norm       Correlation Energy
 Iteration  1        0.255039945168       -1.280968158001
 Iteration  2        0.068894024927       -1.310787899577
 Iteration  3        0.023782747770       -1.315655468576
 Iteration  4        0.004889706982       -1.315626097451
 Iteration  5        0.001440390908       -1.315636910679
 Iteration  6        0.000329733854       -1.315652446197
 Iteration  7        0.000106356518       -1.315648515771
 Iteration  8        0.000030007588       -1.315647214916
 
 CCSD iteration has converged in  8 steps.
     2278.67 MB memory was utilized by CCSD
 
 T1 diagnostic:      1.138E-02            D1 diagnostic:      3.556E-02
 
 T1 contribution [au]:                         0.000000000000
 CCSD correlation energy [au]:                -0.070026521657
 
 CPU time [min]:  4893.895                   Wall time [min]:   678.344
 
 Calculation of (T) correction...
 
 Laplace threshold, nquadmin:  1.00E-03   4
 Number of quadrature points:    4
 
     2145.58 MB memory is utilized for (T)

 0%       25%       50%       75%       100%
 |---------|---------|---------|---------| 
 
 (T) correction [au]:                   -0.002774662077
 CCSD(T) correlation energy [au]:       -0.072801183733
 
 CPU time [min]:  4917.371                   Wall time [min]:   681.380
 
 MO:   103
 Number of atoms in domain:      36
 Number of atomic orbitals:    1548
 Number of atoms for local DF:   36
 Number of fitting functions:  3960 (100.00%)
 Number of occupied orbitals:    65
 Number of virtual  orbitals:  1371
 Number of Cholesky vectors:      7
 MP2 energy in ED [au]:          -0.070170244272
 Number of occupied LNOs:        34  (52.31%)
 Number of virtual  LNOs:       127   (9.26%)
 Number of Cholesky vectors:      6
 MP2 energy in LIS [au]:         -0.069954274265
 Correction for frozen LNO [au]: -0.000215970007     (0.308%)
 Number of NAFs:                433  (10.93%)
 CPU time [min]:  4948.199                   Wall time [min]:   685.697
 

 Direct DF-CCSD(T) calculation
 
 Convergence criterion:  1.0E-05
 
 Number of occupied/virtual/auxiliary orbitals:    34   127   433
    620.89 MB is the minimal memory requirement for (T)
    439.23 MB is the minimal memory requirement for CCSD
 
 MP2 correlation energy [au]:       -1.202202295569
 
 LMP2 domain correlation energy contribution [au]:       -0.069954497264
 
 CPU time [min]:  4948.293                   Wall time [min]:   685.721
 
 
 Starting CCSD iterations...
 
                     Residual norm       Correlation Energy
 Iteration  1        0.244418190935       -1.188846647507
 Iteration  2        0.066729822909       -1.215261143867
 Iteration  3        0.023176404555       -1.219965502128
 Iteration  4        0.004531533916       -1.219925743007
 Iteration  5        0.001343367010       -1.219944149440
 Iteration  6        0.000297604763       -1.219962267641
 Iteration  7        0.000097441223       -1.219958443301
 Iteration  8        0.000027357083       -1.219956893689
 
 CCSD iteration has converged in  8 steps.
     1398.76 MB memory was utilized by CCSD
 
 T1 diagnostic:      1.160E-02            D1 diagnostic:      3.638E-02
 
 T1 contribution [au]:                         0.000000000000
 CCSD correlation energy [au]:                -0.069669818954
 
 CPU time [min]:  4955.028                   Wall time [min]:   686.667
 
 Calculation of (T) correction...
 
 Laplace threshold, nquadmin:  1.00E-03   4
 Number of quadrature points:    4
 
     1193.26 MB memory is utilized for (T)

 0%       25%       50%       75%       100%
 |---------|---------|---------|---------| 
 
 (T) correction [au]:                   -0.002694110633
 CCSD(T) correlation energy [au]:       -0.072363929587
 
 CPU time [min]:  4964.205                   Wall time [min]:   687.846
 
 MO:   104
 Number of atoms in domain:      36
 Number of atomic orbitals:    1548
 Number of atoms for local DF:   36
 Number of fitting functions:  3960 (100.00%)
 Number of occupied orbitals:    65
 Number of virtual  orbitals:  1371
 Number of Cholesky vectors:      7
 MP2 energy in ED [au]:          -0.070170743230
 Number of occupied LNOs:        34  (52.31%)
 Number of virtual  LNOs:       127   (9.26%)
 Number of Cholesky vectors:      6
 MP2 energy in LIS [au]:         -0.069954555536
 Correction for frozen LNO [au]: -0.000216187694     (0.308%)
 Number of NAFs:                433  (10.93%)
 CPU time [min]:  4994.951                   Wall time [min]:   692.153
 

 Direct DF-CCSD(T) calculation
 
 Convergence criterion:  1.0E-05
 
 Number of occupied/virtual/auxiliary orbitals:    34   127   433
    620.89 MB is the minimal memory requirement for (T)
    439.23 MB is the minimal memory requirement for CCSD
 
 MP2 correlation energy [au]:       -1.202493016005
 
 LMP2 domain correlation energy contribution [au]:       -0.069954782295
 
 CPU time [min]:  4995.045                   Wall time [min]:   692.177
 
 
 Starting CCSD iterations...
 
                     Residual norm       Correlation Energy
 Iteration  1        0.244430294372       -1.189091307866
 Iteration  2        0.066742792405       -1.215509817050
 Iteration  3        0.023182226103       -1.220216615662
 Iteration  4        0.004531808165       -1.220176537677
 Iteration  5        0.001343509873       -1.220195021897
 Iteration  6        0.000297604908       -1.220213189133
 Iteration  7        0.000097450257       -1.220209360769
 Iteration  8        0.000027360730       -1.220207805129
 
 CCSD iteration has converged in  8 steps.
     1398.76 MB memory was utilized by CCSD
 
 T1 diagnostic:      1.160E-02            D1 diagnostic:      3.638E-02
 
 T1 contribution [au]:                         0.000000000000
 CCSD correlation energy [au]:                -0.069670147843
 
 CPU time [min]:  5001.790                   Wall time [min]:   693.124
 
 Calculation of (T) correction...
 
 Laplace threshold, nquadmin:  1.00E-03   4
 Number of quadrature points:    4
 
     1193.26 MB memory is utilized for (T)

 0%       25%       50%       75%       100%
 |---------|---------|---------|---------| 
 
 (T) correction [au]:                   -0.002694126756
 CCSD(T) correlation energy [au]:       -0.072364274599
 
 CPU time [min]:  5011.037                   Wall time [min]:   694.313
 
 MO:   105
 Number of atoms in domain:      36
 Number of atomic orbitals:    1548
 Number of atoms for local DF:   36
 Number of fitting functions:  3960 (100.00%)
 Number of occupied orbitals:    65
 Number of virtual  orbitals:  1371
 Number of Cholesky vectors:      7
 MP2 energy in ED [au]:          -0.070171217232
 Number of occupied LNOs:        34  (52.31%)
 Number of virtual  LNOs:       127   (9.26%)
 Number of Cholesky vectors:      6
 MP2 energy in LIS [au]:         -0.069955228761
 Correction for frozen LNO [au]: -0.000215988471     (0.308%)
 Number of NAFs:                433  (10.93%)
 CPU time [min]:  5041.867                   Wall time [min]:   698.633
 

 Direct DF-CCSD(T) calculation
 
 Convergence criterion:  1.0E-05
 
 Number of occupied/virtual/auxiliary orbitals:    34   127   433
    620.89 MB is the minimal memory requirement for (T)
    439.23 MB is the minimal memory requirement for CCSD
 
 MP2 correlation energy [au]:       -1.202730981287
 
 LMP2 domain correlation energy contribution [au]:       -0.069955458386
 
 CPU time [min]:  5041.961                   Wall time [min]:   698.657
 
 
 Starting CCSD iterations...
 
                     Residual norm       Correlation Energy
 Iteration  1        0.244449895234       -1.189303236165
 Iteration  2        0.066753712333       -1.215725173614
 Iteration  3        0.023186220975       -1.220433664623
 Iteration  4        0.004532108315       -1.220393588787
 Iteration  5        0.001343646525       -1.220412135524
 Iteration  6        0.000297564338       -1.220430326938
 Iteration  7        0.000097435143       -1.220426501383
 Iteration  8        0.000027355270       -1.220424943320
 
 CCSD iteration has converged in  8 steps.
     1398.76 MB memory was utilized by CCSD
 
 T1 diagnostic:      1.160E-02            D1 diagnostic:      3.637E-02
 
 T1 contribution [au]:                         0.000000000000
 CCSD correlation energy [au]:                -0.069670710032
 
 CPU time [min]:  5048.710                   Wall time [min]:   699.606
 
 Calculation of (T) correction...
 
 Laplace threshold, nquadmin:  1.00E-03   4
 Number of quadrature points:    4
 
     1193.26 MB memory is utilized for (T)

 0%       25%       50%       75%       100%
 |---------|---------|---------|---------| 
 
 (T) correction [au]:                   -0.002694169134
 CCSD(T) correlation energy [au]:       -0.072364879166
 
 CPU time [min]:  5057.935                   Wall time [min]:   700.792
 
 **********************************************************************
 Dimensions of the extended domains:    Minimum / Average / Maximum
 
 Number of atoms in domain:                  35      35.8        36
 Number of atomic orbitals:                1502    1541.0      1548
 Number of fitting functions:              3064    3657.9      3960
 Number of occupied localized MOs:           21      52.8        88
 Number of PAOs:                           1124    1292.9      1371
 Number of occupied LNOs:                     9      30.6        48
 Number of virtual  LNOs:                    71     122.6       180
 Number of NAFs:                            190     412.1       643
 
 **********************************************************************
 Distant (and weak) pair contributions, corrections
 
 Sum of pair energies [au]:                    -0.002037673233    (0.027%)
 Sum of energy corrections [au]:               -0.018405095096    (0.247%)
 Pair energies + LNO corrections [au]:         -0.020442768329
 Sum of LMP2 contributions [au]:               -7.463515395550
 
 **********************************************************************
  Time of manipulations in the EDs:      max CPU/Wall [s]  all CPU/Wall [min]
 
 PD construction & multipole pair E    1085.15   136.65    18.09     2.28
 Construct MO basis of the ED            11.07     1.73    14.12     1.84
 (mu,nu|P) evaluation & trf 2 (ai|P)    611.76    76.70   628.61    78.82
 Evaluate MP2 energy of the ED          351.78    44.23   323.81    40.60
 Transformations to the LNO basis        67.93     8.68    64.75     8.13
 Build W_PQ (Jai or Jpi part)             5.46     0.69     4.74     0.60
 Evaluate MP2 energy of the LIS           3.72     0.47     2.50     0.31
 (mu,nu|P) evaluation & trf 2 J(abQ)   1418.32   204.47  1499.50   228.21
 Total of the above for all EDs        2470.03   336.97  2538.03   358.51
 
 **********************************************************************
 Maximum memory requirement [MB]:       
 
 PD construction & multipole pair E        195.9
 AO integral evaluation in the EDs         213.4
 (mu,nu|P) evaluation & trf 2 (aI|P)      8736.8
 Evaluate MP2 energy in the EDs           8732.9
 Transformation to the LNO basis          1724.9
 (mu,nu|P) to Jab transformation          1364.7
 Evaluate MP2 energy in the LIS           1864.0
 Minimum requirement for LIS CCSD         1273.7
 Actually allocated  for LIS CCSD         5217.6
 Minimum requirement for LIS (T)          1841.7
 Actually allocated  for LIS (T)          4251.6
 
 ======================================================================
 ======================================================================
 
 
 
 ======================================================================
 ======================================================================
 
 Final local CC results:
 
 Minimum number of correlated electrons:        18       (  8.6%)
 Maximum number of correlated electrons:        96       ( 45.7%)
 Average number of correlated electrons:        61.2     ( 29.1%)
 Minimum number of correlated orbitals:         80       (  5.4%)
 Maximum number of correlated orbitals:        228       ( 15.4%)
 Average number of correlated orbitals:        153.2     ( 10.4%)
 
 CPU time for integral calculations [min]:                 12.148
 Wall time for integral calculations [min]:                 8.413
 
 CPU time for SCF calculation [min]:                      199.176
 Wall time for SCF calculation [min]:                      25.280
 
 CPU time for orbital localization [min]:                   0.344
 Wall time for orbital localization [min]:                  0.284
 
 CPU time for integral transformations [min]:            2592.643
 Wall time for integral transformations [min]:            365.878
 
 Reference energy [au]:                                -13079.496841795657
 
 LMP2 correlation energy [au]:                             -7.463515395550
 Total LMP2 energy [au]:                               -13086.960357191207
 
 Total MP2 correction for dropped NAFs [au]:               -0.000178092264
 Total MP2 correction [au]:                                -0.020620860592
 
 CPU time for CCSD calculations [min]:                   1074.103
 Total CPU time for CCSD [min]:                          3878.415
 Wall time for CCSD calculations [min]:                   155.225
 Total wall time for CCSD [min]:                          555.079
 
 CCSD correlation energy [au]:                             -7.383328438215
 Total CCSD energy [au]:                               -13086.880170233871
 CCSD correlation energy + 0.5 MP2 corrections [au]:       -7.393638868511
 Total LNO-CCSD energy with MP2 corrections [au]:      -13086.890480664168
 
 CPU time for (T) corrections [min]:                     1391.198
 Total CPU time for CCSD(T) [min]:                       5269.612
 Wall time for (T) corrections [min]:                     179.691
 Total wall time for CCSD(T) [min]:                       734.771
 
 Total (T) correlation energy contribution [au]:           -0.301068388627
 Total (T) correlation energy+0.5 MP2 correction [au]:     -0.311378818923
 CCSD(T) correlation energy [au]:                          -7.684396826841
 Total CCSD(T) energy [au]:                            -13087.181238622497
 CCSD(T) correlation energy + MP2 corrections [au]:        -7.705017687434
 Total LNO-CCSD(T) energy with MP2 corrections [au]:   -13087.201859483092
 
 ======================================================================
 ======================================================================
 
 ************************ 2024-11-26 08:04:20 *************************
                      Normal termination of mrcc.
 **********************************************************************
