 vasp.6.3.0 20Jan22 (build Mar 11 2022 13:48:16) complex

 executed on             LinuxIFC date 2023.12.26  17:17:34
 running on  304 total cores
 distrk:  each k-point on  304 cores,    1 groups
 distr:  one band on NCORE=   2 cores,  152 groups


--------------------------------------------------------------------------------------------------------


 INCAR:
   SYSTEM = MgO-rocksalt
   ISMEAR = 0
   SIGMA = 0.05
   EDIFF = 1E-5
   ALGO = ALL
   ISTART = 0
   IBRION = -1
   NSW = 0
   ISYM = 2
   ISIF = 2
   DIPOL = 0.5 0.5 0.5
   IDIPOL = 3
   LDIPOL = .TRUE.
   GGA = RE
   IVDW = 13
   VDW_S8 = 1.7468
   VDW_A1 = 0.5363
   VDW_A2 = 3.0726
   ENCUT = 600
   PREC = Accurate
   LASPH = .TRUE.
   LREAL = .FALSE.
   ISPIN = 1
   NELM = 200
   NELMIN = 8
   NCORE = 2
   KPAR = 1
   LWAVE = .FALSE.
   LCHARG = .FALSE.

 POTCAR:    PAW_PBE C 08Apr2002
 POTCAR:    PAW_PBE O 08Apr2002
 POTCAR:    PAW_PBE Mg_pv 13Apr2007
 POTCAR:    PAW_PBE O 08Apr2002
 -----------------------------------------------------------------------------
|                                                                             |
|           W    W    AA    RRRRR   N    N  II  N    N   GGGG   !!!           |
|           W    W   A  A   R    R  NN   N  II  NN   N  G    G  !!!           |
|           W    W  A    A  R    R  N N  N  II  N N  N  G       !!!           |
|           W WW W  AAAAAA  RRRRR   N  N N  II  N  N N  G  GGG   !            |
|           WW  WW  A    A  R   R   N   NN  II  N   NN  G    G                |
|           W    W  A    A  R    R  N    N  II  N    N   GGGG   !!!           |
|                                                                             |
|     For optimal performance we recommend to set                             |
|       NCORE = 2 up to number-of-cores-per-socket                            |
|     NCORE specifies how many cores store one orbital (NPAR=cpu/NCORE).      |
|     This setting can greatly improve the performance of VASP for DFT.       |
|     The default, NCORE=1 might be grossly inefficient on modern             |
|     multi-core architectures or massively parallel machines. Do your        |
|     own testing! More info at https://www.vasp.at/wiki/index.php/NCORE      |
|     Unfortunately you need to use the default for GW and RPA                |
|     calculations (for HF NCORE is supported but not extensively tested      |
|     yet).                                                                   |
|                                                                             |
 -----------------------------------------------------------------------------

 POTCAR:    PAW_PBE C 08Apr2002
   SHA256 =  253f7b50bb8d59471dbedb8285d89021f4a42ed1a2c5d38a03a736e69125dd95 C/POTCAR
   COPYR  = (c) Copyright 08Apr2002 Georg Kresse
   COPYR  = This file is part of the software VASP. Any use, copying, and all other rights are regul
   COPYR  = If you do not have a valid VASP license, you may not use, copy or distribute this file.
   VRHFIN =C: s2p2
   LEXCH  = PE
   EATOM  =   147.1560 eV,   10.8157 Ry

   TITEL  = PAW_PBE C 08Apr2002
   LULTRA =        F    use ultrasoft PP ?
   IUNSCR =        1    unscreen: 0-lin 1-nonlin 2-no
   RPACOR =    1.200    partial core radius
   POMASS =   12.011; ZVAL   =    4.000    mass and valenz
   RCORE  =    1.500    outmost cutoff radius
   RWIGS  =    1.630; RWIGS  =    0.863    wigner-seitz radius (au A)
   ENMAX  =  400.000; ENMIN  =  300.000 eV
   ICORE  =        2    local potential
   LCOR   =        T    correct aug charges
   LPAW   =        T    paw PP
   EAUG   =  644.873
   DEXC   =    0.000
   RMAX   =    1.529    core radius for proj-oper
   RAUG   =    1.300    factor for augmentation sphere
   RDEP   =    1.501    radius for radial grids
   RDEPT  =    1.300    core radius for aug-charge

   Atomic configuration
    4 entries
     n  l   j            E        occ.
     1  0  0.50      -273.3789   2.0000
     2  0  0.50       -13.7508   2.0000
     2  1  0.50        -5.2854   2.0000
     3  2  1.50        -5.4423   0.0000
   Description
     l       E           TYP  RCUT    TYP  RCUT
     0    -13.7508458     23  1.200
     0     -8.2022199     23  1.200
     1     -5.2854383     23  1.500
     1     34.0145650     23  1.500
     2     -5.4423304      7  1.500
  local pseudopotential read in
  partial core-charges read in
  partial kinetic energy density read in
  atomic valenz-charges read in
  non local Contribution for L=           0  read in
    real space projection operators read in
  non local Contribution for L=           0  read in
    real space projection operators read in
  non local Contribution for L=           1  read in
    real space projection operators read in
  non local Contribution for L=           1  read in
    real space projection operators read in
    PAW grid and wavefunctions read in

   number of l-projection  operators is LMAX  =           4
   number of lm-projection operators is LMMAX =           8

 POTCAR:    PAW_PBE O 08Apr2002
   SHA256 =  818f92134a0a090dccd8ba1447fa70422a3b330e708bb4f08108d8ae51209ddf O/POTCAR
   COPYR  = (c) Copyright 08Apr2002 Georg Kresse
   COPYR  = This file is part of the software VASP. Any use, copying, and all other rights are regul
   COPYR  = If you do not have a valid VASP license, you may not use, copy or distribute this file.
   VRHFIN =O: s2p4
   LEXCH  = PE
   EATOM  =   432.3788 eV,   31.7789 Ry

   TITEL  = PAW_PBE O 08Apr2002
   LULTRA =        F    use ultrasoft PP ?
   IUNSCR =        1    unscreen: 0-lin 1-nonlin 2-no
   RPACOR =    1.200    partial core radius
   POMASS =   16.000; ZVAL   =    6.000    mass and valenz
   RCORE  =    1.520    outmost cutoff radius
   RWIGS  =    1.550; RWIGS  =    0.820    wigner-seitz radius (au A)
   ENMAX  =  400.000; ENMIN  =  300.000 eV
   ICORE  =        2    local potential
   LCOR   =        T    correct aug charges
   LPAW   =        T    paw PP
   EAUG   =  605.392
   DEXC   =    0.000
   RMAX   =    1.553    core radius for proj-oper
   RAUG   =    1.300    factor for augmentation sphere
   RDEP   =    1.550    radius for radial grids
   RDEPT  =    1.329    core radius for aug-charge

   Atomic configuration
    4 entries
     n  l   j            E        occ.
     1  0  0.50      -514.6923   2.0000
     2  0  0.50       -23.9615   2.0000
     2  1  0.50        -9.0305   4.0000
     3  2  1.50        -9.5241   0.0000
   Description
     l       E           TYP  RCUT    TYP  RCUT
     0    -23.9615318     23  1.200
     0     -9.5240782     23  1.200
     1     -9.0304911     23  1.520
     1      8.1634956     23  1.520
     2     -9.5240782      7  1.500
  local pseudopotential read in
  partial core-charges read in
  partial kinetic energy density read in
  kinetic energy density of atom read in
  atomic valenz-charges read in
  non local Contribution for L=           0  read in
    real space projection operators read in
  non local Contribution for L=           0  read in
    real space projection operators read in
  non local Contribution for L=           1  read in
    real space projection operators read in
  non local Contribution for L=           1  read in
    real space projection operators read in
    PAW grid and wavefunctions read in

   number of l-projection  operators is LMAX  =           4
   number of lm-projection operators is LMMAX =           8

 POTCAR:    PAW_PBE Mg_pv 13Apr2007
   SHA256 =  f474ac0dd33840b9ae76c01d57fea79fdf77cdfbb07d5ade72c65f83c709b62b Mg_pv/POTCAR
   COPYR  = (c) Copyright 13Apr2007 Georg Kresse
   COPYR  = This file is part of the software VASP. Any use, copying, and all other rights are regul
   COPYR  = If you do not have a valid VASP license, you may not use, copy or distribute this file.
   VRHFIN =Mg: p6s2
   LEXCH  = PE
   EATOM  =  1056.7344 eV,   77.6678 Ry

   TITEL  = PAW_PBE Mg_pv 13Apr2007
   LULTRA =        F    use ultrasoft PP ?
   IUNSCR =        1    unscreen: 0-lin 1-nonlin 2-no
   RPACOR =    1.500    partial core radius
   POMASS =   24.305; ZVAL   =    8.000    mass and valenz
   RCORE  =    2.000    outmost cutoff radius
   RWIGS  =    2.000; RWIGS  =    1.058    wigner-seitz radius (au A)
   ENMAX  =  403.929; ENMIN  =  302.947 eV
   RCLOC  =    1.506    cutoff for local pot
   LCOR   =        T    correct aug charges
   LPAW   =        T    paw PP
   EAUG   =  758.780
   DEXC   =    0.000
   RMAX   =    2.045    core radius for proj-oper
   RAUG   =    1.300    factor for augmentation sphere
   RDEP   =    2.025    radius for radial grids
   RDEPT  =    1.557    core radius for aug-charge

   Atomic configuration
    5 entries
     n  l   j            E        occ.
     1  0  0.50     -1259.6230   2.0000
     2  0  0.50       -79.8442   2.0000
     2  1  1.50       -46.6121   6.0000
     3  0  0.50        -4.7055   2.0000
     3  2  1.50        -1.3606   0.0000
   Description
     l       E           TYP  RCUT    TYP  RCUT
     1    -46.6121073     23  1.600
     1      2.7211652     23  1.600
     0     -4.7054661     23  2.000
     0     61.2262170     23  2.000
     2     -1.3605826     23  2.000
  local pseudopotential read in
  partial core-charges read in
  partial kinetic energy density read in
  atomic valenz-charges read in
  non local Contribution for L=           1  read in
    real space projection operators read in
  non local Contribution for L=           1  read in
    real space projection operators read in
  non local Contribution for L=           0  read in
    real space projection operators read in
  non local Contribution for L=           0  read in
    real space projection operators read in
  non local Contribution for L=           2  read in
    real space projection operators read in
    PAW grid and wavefunctions read in

   number of l-projection  operators is LMAX  =           5
   number of lm-projection operators is LMMAX =          13

 POTCAR:    PAW_PBE O 08Apr2002
   SHA256 =  818f92134a0a090dccd8ba1447fa70422a3b330e708bb4f08108d8ae51209ddf O/POTCAR
   COPYR  = (c) Copyright 08Apr2002 Georg Kresse
   COPYR  = This file is part of the software VASP. Any use, copying, and all other rights are regul
   COPYR  = If you do not have a valid VASP license, you may not use, copy or distribute this file.
   VRHFIN =O: s2p4
   LEXCH  = PE
   EATOM  =   432.3788 eV,   31.7789 Ry

   TITEL  = PAW_PBE O 08Apr2002
   LULTRA =        F    use ultrasoft PP ?
   IUNSCR =        1    unscreen: 0-lin 1-nonlin 2-no
   RPACOR =    1.200    partial core radius
   POMASS =   16.000; ZVAL   =    6.000    mass and valenz
   RCORE  =    1.520    outmost cutoff radius
   RWIGS  =    1.550; RWIGS  =    0.820    wigner-seitz radius (au A)
   ENMAX  =  400.000; ENMIN  =  300.000 eV
   ICORE  =        2    local potential
   LCOR   =        T    correct aug charges
   LPAW   =        T    paw PP
   EAUG   =  605.392
   DEXC   =    0.000
   RMAX   =    1.553    core radius for proj-oper
   RAUG   =    1.300    factor for augmentation sphere
   RDEP   =    1.550    radius for radial grids
   RDEPT  =    1.329    core radius for aug-charge

   Atomic configuration
    4 entries
     n  l   j            E        occ.
     1  0  0.50      -514.6923   2.0000
     2  0  0.50       -23.9615   2.0000
     2  1  0.50        -9.0305   4.0000
     3  2  1.50        -9.5241   0.0000
   Description
     l       E           TYP  RCUT    TYP  RCUT
     0    -23.9615318     23  1.200
     0     -9.5240782     23  1.200
     1     -9.0304911     23  1.520
     1      8.1634956     23  1.520
     2     -9.5240782      7  1.500
  local pseudopotential read in
  partial core-charges read in
  partial kinetic energy density read in
  kinetic energy density of atom read in
  atomic valenz-charges read in
  non local Contribution for L=           0  read in
    real space projection operators read in
  non local Contribution for L=           0  read in
    real space projection operators read in
  non local Contribution for L=           1  read in
    real space projection operators read in
  non local Contribution for L=           1  read in
    real space projection operators read in
    PAW grid and wavefunctions read in

   number of l-projection  operators is LMAX  =           4
   number of lm-projection operators is LMMAX =           8

 -----------------------------------------------------------------------------
|                                                                             |
|               ----> ADVICE to this user running VASP <----                  |
|                                                                             |
|     You have a (more or less) 'large supercell' and for larger cells it     |
|     might be more efficient to use real-space projection operators.         |
|     Therefore, try LREAL= Auto in the INCAR file.                           |
|     Mind: For very accurate calculation, you might also keep the            |
|     reciprocal projection scheme (i.e. LREAL=.FALSE.).                      |
|                                                                             |
 -----------------------------------------------------------------------------

 -----------------------------------------------------------------------------
|                                                                             |
|               ----> ADVICE to this user running VASP <----                  |
|                                                                             |
|     You enforced a specific xc type in the INCAR file but a different       |
|     type was found in the POTCAR file.                                      |
|     I HOPE YOU KNOW WHAT YOU ARE DOING!                                     |
|                                                                             |
 -----------------------------------------------------------------------------

  PAW_PBE C 08Apr2002                   :
 energy of atom  1       EATOM= -147.1560
 kinetic energy error for atom=    0.0057 (will be added to EATOM!!)
  PAW_PBE O 08Apr2002                   :
 energy of atom  2       EATOM= -432.3788
 kinetic energy error for atom=    0.0168 (will be added to EATOM!!)
  PAW_PBE Mg_pv 13Apr2007               :
 energy of atom  3       EATOM=-1056.7344
 kinetic energy error for atom=    0.0221 (will be added to EATOM!!)
  PAW_PBE O 08Apr2002                   :
 energy of atom  4       EATOM= -432.3788
 kinetic energy error for atom=    0.0168 (will be added to EATOM!!)


 POSCAR:  C  O Mg  O
  positions in direct lattice
  No initial velocities read in
 -----------------------------------------------------------------------------
|                                                                             |
|           W    W    AA    RRRRR   N    N  II  N    N   GGGG   !!!           |
|           W    W   A  A   R    R  NN   N  II  NN   N  G    G  !!!           |
|           W    W  A    A  R    R  N N  N  II  N N  N  G       !!!           |
|           W WW W  AAAAAA  RRRRR   N  N N  II  N  N N  G  GGG   !            |
|           WW  WW  A    A  R   R   N   NN  II  N   NN  G    G                |
|           W    W  A    A  R    R  N    N  II  N    N   GGGG   !!!           |
|                                                                             |
|     Specifying the vdW parameters                                           |
|     VDW_S8 = 1.747                                                          |
|     VDW_A1 = 0.536                                                          |
|     VDW_A2 = 3.073                                                          |
|     in the INCAR file will overwrite the defaults for revpbe. Please        |
|     make sure that is what you intended.                                    |
|                                                                             |
 -----------------------------------------------------------------------------

 exchange correlation table for  LEXCH =       40
   RHO(1)=    0.500       N(1)  =     2000
   RHO(2)=  100.500       N(2)  =     4000



--------------------------------------------------------------------------------------------------------


 ion  position               nearest neighbor table
   1  0.500  0.500  0.765-   2 1.15
   2  0.500  0.500  0.819-   1 1.15
   3  0.000  0.750  0.352-  35 2.11  37 2.11  38 2.11  45 2.11  54 2.11
   4  0.250  0.000  0.352-  36 2.11  37 2.11  38 2.11  46 2.11  53 2.11
   5  0.000  0.000  0.451-  37 2.11  36 2.11  35 2.11  43 2.11  52 2.11  41 2.12
   6  0.250  0.750  0.451-  38 2.11  36 2.11  35 2.11  44 2.11  51 2.11  42 2.12
   7  0.000  0.750  0.550-  49 2.11  42 2.11  58 2.11  41 2.11  35 2.12  39 2.15
   8  0.250  0.000  0.550-  57 2.11  50 2.11  42 2.11  41 2.11  36 2.12  40 2.15
   9  0.000  0.000  0.649-  39 2.11  40 2.11  47 2.11  56 2.11  41 2.11
  10  0.250  0.750  0.649-  42 2.11  40 2.11  39 2.11  48 2.11  55 2.11
  11  0.000  0.250  0.352-  43 2.11  37 2.11  45 2.11  46 2.11  62 2.11
  12  0.250  0.500  0.352-  44 2.11  38 2.11  45 2.11  46 2.11  61 2.11
  13  0.000  0.500  0.451-  45 2.11  43 2.11  44 2.11  35 2.11  60 2.11  49 2.12
  14  0.250  0.250  0.451-  46 2.11  43 2.11  44 2.11  36 2.11  59 2.11  50 2.12
  15  0.000  0.250  0.550-  49 2.11  50 2.11  66 2.11  41 2.11  43 2.12  47 2.15
  16  0.250  0.500  0.550-  65 2.11  50 2.11  42 2.11  49 2.11  44 2.13  48 2.15
  17  0.000  0.500  0.649-  48 2.10  64 2.10  49 2.11  47 2.11  39 2.11
  18  0.250  0.250  0.649-  50 2.11  47 2.11  40 2.11  48 2.11  63 2.11
  19  0.500  0.750  0.352-  51 2.11  38 2.11  53 2.11  54 2.11  61 2.11
  20  0.750  0.000  0.352-  52 2.11  37 2.11  53 2.11  54 2.11  62 2.11
  21  0.500  0.000  0.451-  53 2.11  51 2.11  52 2.11  36 2.11  59 2.11  57 2.12
  22  0.750  0.750  0.451-  54 2.11  51 2.11  52 2.11  35 2.11  60 2.11  58 2.12
  23  0.500  0.750  0.550-  65 2.11  58 2.11  42 2.11  57 2.11  51 2.13  55 2.15
  24  0.750  0.000  0.550-  57 2.11  58 2.11  66 2.11  41 2.11  52 2.12  56 2.15
  25  0.500  0.000  0.649-  55 2.10  63 2.10  57 2.11  40 2.11  56 2.11
  26  0.750  0.750  0.649-  58 2.11  56 2.11  39 2.11  55 2.11  64 2.11
  27  0.500  0.250  0.352-  59 2.11  53 2.11  46 2.11  61 2.11  62 2.11
  28  0.750  0.500  0.352-  60 2.11  54 2.11  45 2.11  61 2.11  62 2.11
  29  0.500  0.500  0.451-  61 2.11  51 2.11  59 2.11  60 2.11  44 2.11  65 2.13
  30  0.750  0.250  0.451-  62 2.11  52 2.11  59 2.11  60 2.11  43 2.11  66 2.12
  31  0.500  0.250  0.550-  65 2.11  50 2.11  66 2.11  57 2.11  59 2.13  63 2.15
  32  0.750  0.500  0.550-  65 2.11  58 2.11  66 2.11  49 2.11  60 2.13  64 2.15
  33  0.500  0.500  0.651-  48 2.12  55 2.12  63 2.12  64 2.12  65 2.14
  34  0.750  0.250  0.649-  66 2.11  56 2.11  47 2.11  64 2.11  63 2.11
  35  0.000  0.750  0.451-   3 2.11   5 2.11   6 2.11  13 2.11  22 2.11   7 2.12
  36  0.250  0.000  0.451-   4 2.11   5 2.11   6 2.11  14 2.11  21 2.11   8 2.12
  37  0.000  0.000  0.352-   5 2.11   4 2.11   3 2.11  11 2.11  20 2.11
  38  0.250  0.750  0.352-   6 2.11   4 2.11   3 2.11  12 2.11  19 2.11
  39  0.000  0.750  0.651-   9 2.11  10 2.11  26 2.11  17 2.11   7 2.15
  40  0.250  0.000  0.651-   9 2.11  10 2.11  18 2.11  25 2.11   8 2.15
  41  0.000  0.000  0.550-   9 2.11   8 2.11   7 2.11  15 2.11  24 2.11   5 2.12
  42  0.250  0.750  0.550-  10 2.11   8 2.11   7 2.11  16 2.11  23 2.11   6 2.12
  43  0.000  0.250  0.451-  11 2.11   5 2.11  13 2.11  14 2.11  30 2.11  15 2.12
  44  0.250  0.500  0.451-  12 2.11   6 2.11  13 2.11  14 2.11  29 2.11  16 2.13
  45  0.000  0.500  0.352-  13 2.11  11 2.11  12 2.11   3 2.11  28 2.11
  46  0.250  0.250  0.352-  14 2.11  11 2.11  12 2.11   4 2.11  27 2.11
  47  0.000  0.250  0.651-   9 2.11  18 2.11  34 2.11  17 2.11  15 2.15
  48  0.249  0.500  0.651-  17 2.10  10 2.11  18 2.11  33 2.12  16 2.15
  49  0.000  0.500  0.550-  17 2.11  15 2.11   7 2.11  16 2.11  32 2.11  13 2.12
  50  0.250  0.250  0.550-  18 2.11  15 2.11   8 2.11  16 2.11  31 2.11  14 2.12
  51  0.500  0.750  0.451-  19 2.11   6 2.11  21 2.11  22 2.11  29 2.11  23 2.13
  52  0.750  0.000  0.451-  20 2.11   5 2.11  21 2.11  22 2.11  30 2.11  24 2.12
  53  0.500  0.000  0.352-  21 2.11  19 2.11  20 2.11   4 2.11  27 2.11
  54  0.750  0.750  0.352-  22 2.11  19 2.11  20 2.11   3 2.11  28 2.11
  55  0.500  0.751  0.651-  25 2.10  10 2.11  26 2.11  33 2.12  23 2.15
  56  0.750  0.000  0.651-   9 2.11  26 2.11  34 2.11  25 2.11  24 2.15
  57  0.500  0.000  0.550-  25 2.11  24 2.11   8 2.11  23 2.11  31 2.11  21 2.12
  58  0.750  0.750  0.550-  26 2.11  24 2.11   7 2.11  32 2.11  23 2.11  22 2.12
  59  0.500  0.250  0.451-  27 2.11  21 2.11  14 2.11  29 2.11  30 2.11  31 2.13
  60  0.750  0.500  0.451-  28 2.11  22 2.11  13 2.11  29 2.11  30 2.11  32 2.13
  61  0.500  0.500  0.352-  29 2.11  19 2.11  27 2.11  28 2.11  12 2.11
  62  0.750  0.250  0.352-  30 2.11  20 2.11  27 2.11  28 2.11  11 2.11
  63  0.500  0.249  0.651-  25 2.10  18 2.11  34 2.11  33 2.12  31 2.15
  64  0.751  0.500  0.651-  17 2.10  26 2.11  34 2.11  33 2.12  32 2.15
  65  0.500  0.500  0.550-  16 2.11  23 2.11  31 2.11  32 2.11  29 2.13  33 2.14
  66  0.750  0.250  0.550-  34 2.11  24 2.11  15 2.11  32 2.11  31 2.11  30 2.12

  LATTYP: Found a simple tetragonal cell.
 ALAT       =     8.4409846542
 C/A-ratio  =     2.5270438657

  Lattice vectors:

 A1 = (   8.4409846542,   0.0000000000,   0.0000000000)
 A2 = (   0.0000000000,   8.4409846542,   0.0000000000)
 A3 = (   0.0000000000,   0.0000000000,  21.3307384906)


Analysis of symmetry for initial positions (statically):
=====================================================================
 Subroutine PRICEL returns:
 Original cell was already a primitive cell.


 Routine SETGRP: Setting up the symmetry group for a
 simple tetragonal supercell.


 Subroutine GETGRP returns: Found  8 space group operations
 (whereof  8 operations were pure point group operations)
 out of a pool of 16 trial point group operations.


The static configuration has the point symmetry C_4v.


Analysis of symmetry for dynamics (positions and initial velocities):
=====================================================================
 Subroutine PRICEL returns:
 Original cell was already a primitive cell.


 Routine SETGRP: Setting up the symmetry group for a
 simple tetragonal supercell.


 Subroutine GETGRP returns: Found  8 space group operations
 (whereof  8 operations were pure point group operations)
 out of a pool of 16 trial point group operations.


The dynamic configuration has the point symmetry C_4v.


Analysis of constrained symmetry for selective dynamics:
=====================================================================
 Subroutine PRICEL returns:
 Original cell was already a primitive cell.


 Routine SETGRP: Setting up the symmetry group for a
 simple tetragonal supercell.


 Subroutine GETGRP returns: Found  8 space group operations
 (whereof  8 operations were pure point group operations)
 out of a pool of 16 trial point group operations.


The constrained configuration has the point symmetry C_4v.


 Subroutine INISYM returns: Found  8 space group operations
 (whereof  8 operations are pure point group operations),
 and found     1 'primitive' translations


----------------------------------------------------------------------------------------

                                     Primitive cell

  volume of cell :    1519.8199

  direct lattice vectors                    reciprocal lattice vectors
     8.440984654  0.000000000  0.000000000     0.118469591  0.000000000  0.000000000
     0.000000000  8.440984654  0.000000000     0.000000000  0.118469591  0.000000000
     0.000000000  0.000000000 21.330738491     0.000000000  0.000000000  0.046880702

  length of vectors
     8.440984654  8.440984654 21.330738491     0.118469591  0.118469591  0.046880702

  position of ions in fractional coordinates (direct lattice)
     0.500000000  0.500000000  0.765053803
     0.500000000  0.500000000  0.818817521
     0.000000000  0.750000000  0.351605267
     0.250000000  0.000000000  0.351605267
     0.000000000  0.000000000  0.450535089
     0.250000000  0.750000000  0.450535089
     0.000000000  0.749939268  0.550083239
     0.250060732  0.000000000  0.550083239
     0.000000000  0.000000000  0.648745309
     0.249858327  0.750141673  0.648569547
     0.000000000  0.250000000  0.351605267
     0.250000000  0.500000000  0.351605267
     0.000000000  0.500000000  0.450535089
     0.250000000  0.250000000  0.450535089
     0.000000000  0.250060732  0.550083239
     0.250378379  0.500000000  0.550219524
     0.000000000  0.500000000  0.648615280
     0.249858327  0.249858327  0.648569547
     0.500000000  0.750000000  0.351605267
     0.750000000  0.000000000  0.351605267
     0.500000000  0.000000000  0.450535089
     0.750000000  0.750000000  0.450535089
     0.500000000  0.749621621  0.550219524
     0.749939268  0.000000000  0.550083239
     0.500000000  0.000000000  0.648615280
     0.750141673  0.750141673  0.648569547
     0.500000000  0.250000000  0.351605267
     0.750000000  0.500000000  0.351605267
     0.500000000  0.500000000  0.450535089
     0.750000000  0.250000000  0.450535089
     0.500000000  0.250378379  0.550219524
     0.749621621  0.500000000  0.550219524
     0.500000000  0.500000000  0.650616960
     0.750141673  0.249858327  0.648569547
     0.000000000  0.750000000  0.450535089
     0.250000000  0.000000000  0.450535089
     0.000000000  0.000000000  0.351605267
     0.250000000  0.750000000  0.351605267
     0.000000000  0.750218533  0.650979255
     0.249781467  0.000000000  0.650979255
     0.000000000  0.000000000  0.549809890
     0.249945770  0.750054230  0.549859113
     0.000000000  0.250000000  0.450535089
     0.250000000  0.500000000  0.450535089
     0.000000000  0.500000000  0.351605267
     0.250000000  0.250000000  0.351605267
     0.000000000  0.249781467  0.650979255
     0.248822710  0.500000000  0.650882872
     0.000000000  0.500000000  0.549762666
     0.249945770  0.249945770  0.549859113
     0.500000000  0.750000000  0.450535089
     0.750000000  0.000000000  0.450535089
     0.500000000  0.000000000  0.351605267
     0.750000000  0.750000000  0.351605267
     0.500000000  0.751177290  0.650882872
     0.750218533  0.000000000  0.650979255
     0.500000000  0.000000000  0.549762666
     0.750054230  0.750054230  0.549859113
     0.500000000  0.250000000  0.450535089
     0.750000000  0.500000000  0.450535089
     0.500000000  0.500000000  0.351605267
     0.750000000  0.250000000  0.351605267
     0.500000000  0.248822710  0.650882872
     0.751177290  0.500000000  0.650882872
     0.500000000  0.500000000  0.550231357
     0.750054230  0.249945770  0.549859113

  ion indices of the primitive-cell ions
   primitive index   ion index
                 1           1
                 2           2
                 3           3
                 4           4
                 5           5
                 6           6
                 7           7
                 8           8
                 9           9
                10          10
                11          11
                12          12
                13          13
                14          14
                15          15
                16          16
                17          17
                18          18
                19          19
                20          20
                21          21
                22          22
                23          23
                24          24
                25          25
                26          26
                27          27
                28          28
                29          29
                30          30
                31          31
                32          32
                33          33
                34          34
                35          35
                36          36
                37          37
                38          38
                39          39
                40          40
                41          41
                42          42
                43          43
                44          44
                45          45
                46          46
                47          47
                48          48
                49          49
                50          50
                51          51
                52          52
                53          53
                54          54
                55          55
                56          56
                57          57
                58          58
                59          59
                60          60
                61          61
                62          62
                63          63
                64          64
                65          65
                66          66

----------------------------------------------------------------------------------------



 KPOINTS: pymatgen v2020.8.13 with grid density =

Automatic generation of k-mesh.
 Grid dimensions read from file:
 generate k-points for:    2    2    1

 Generating k-lattice:

  Cartesian coordinates                     Fractional coordinates (reciprocal lattice)
     0.059234796  0.000000000  0.000000000     0.500000000  0.000000000  0.000000000
     0.000000000  0.059234796  0.000000000     0.000000000  0.500000000  0.000000000
     0.000000000  0.000000000  0.046880702     0.000000000  0.000000000  1.000000000

  Length of vectors
     0.059234796  0.059234796  0.046880702

  Shift w.r.t. Gamma in fractional coordinates (k-lattice)
     0.000000000  0.000000000  0.000000000


 Subroutine IBZKPT returns following result:
 ===========================================

 Found      3 irreducible k-points:

 Following reciprocal coordinates:
            Coordinates               Weight
  0.000000  0.000000  0.000000      1.000000
  0.500000  0.000000  0.000000      2.000000
  0.500000  0.500000  0.000000      1.000000

 Following cartesian coordinates:
            Coordinates               Weight
  0.000000  0.000000  0.000000      1.000000
  0.059235  0.000000  0.000000      2.000000
  0.059235  0.059235  0.000000      1.000000



--------------------------------------------------------------------------------------------------------




 Dimension of arrays:
   k-points           NKPTS =      3   k-points in BZ     NKDIM =      3   number of bands    NBANDS=    304
   number of dos      NEDOS =    301   number of ions     NIONS =     66
   non local maximal  LDIM  =      5   non local SUM 2l+1 LMDIM =     13
   total plane-waves  NPLWV = 882000
   max r-space proj   IRMAX =      1   max aug-charges    IRDMAX=  11635
   dimension x,y,z NGX =    70 NGY =   70 NGZ =  180
   dimension x,y,z NGXF=   140 NGYF=  140 NGZF=  360
   support grid    NGXF=   140 NGYF=  140 NGZF=  360
   ions per type =               1   1  32  32
   NGX,Y,Z   is equivalent  to a cutoff of  13.79, 13.79, 14.03 a.u.
   NGXF,Y,Z  is equivalent  to a cutoff of  27.57, 27.57, 28.06 a.u.

 SYSTEM =  MgO-rocksalt
 POSCAR =   C  O Mg  O

 Startparameter for this run:
   NWRITE =      2    write-flag & timer
   PREC   = accura    normal or accurate (medium, high low for compatibility)
   ISTART =      0    job   : 0-new  1-cont  2-samecut
   ICHARG =      2    charge: 1-file 2-atom 10-const
   ISPIN  =      1    spin polarized calculation?
   LNONCOLLINEAR =      F non collinear calculations
   LSORBIT =      F    spin-orbit coupling
   INIWAV =      1    electr: 0-lowe 1-rand  2-diag
   LASPH  =      T    aspherical Exc in radial PAW
 Electronic Relaxation 1
   ENCUT  =  600.0 eV  44.10 Ry    6.64 a.u.  16.86 16.86 42.60*2*pi/ulx,y,z
   ENINI  =  600.0     initial cutoff
   ENAUG  =  758.8 eV  augmentation charge cutoff
   NELM   =    200;   NELMIN=  8; NELMDL= -5     # of ELM steps
   EDIFF  = 0.1E-04   stopping-criterion for ELM
   LREAL  =      F    real-space projection
   NLSPLINE    = F    spline interpolate recip. space projectors
   LCOMPAT=      F    compatible to vasp.4.4
   GGA_COMPAT  = T    GGA compatible to vasp.4.4-vasp.4.6
   LMAXPAW     = -100 max onsite density
   LMAXMIX     =    2 max onsite mixed and CHGCAR
   VOSKOWN=      0    Vosko Wilk Nusair interpolation
   ROPT   =    0.00000   0.00000   0.00000   0.00000
 Ionic relaxation
   EDIFFG = 0.1E-03   stopping-criterion for IOM
   NSW    =      0    number of steps for IOM
   NBLOCK =      1;   KBLOCK =      1    inner block; outer block
   IBRION =     -1    ionic relax: 0-MD 1-quasi-New 2-CG
   NFREE  =      0    steps in history (QN), initial steepest desc. (CG)
   ISIF   =      2    stress and relaxation
   IWAVPR =     10    prediction:  0-non 1-charg 2-wave 3-comb
   ISYM   =      2    0-nonsym 1-usesym 2-fastsym
   LCORR  =      T    Harris-Foulkes like correction to forces

   POTIM  = 0.5000    time-step for ionic-motion
   TEIN   =    0.0    initial temperature
   TEBEG  =    0.0;   TEEND  =   0.0 temperature during run
   SMASS  =  -3.00    Nose mass-parameter (am)
   estimated Nose-frequenzy (Omega)   =  0.10E-29 period in steps = 0.13E+47 mass=  -0.163E-26a.u.
   SCALEE = 1.0000    scale energy and forces
   NPACO  =    256;   APACO  = 10.0  distance and # of slots for P.C.
   PSTRESS=    0.0 pullay stress

  Mass of Ions in am
   POMASS =  12.01 16.00 24.30 16.00
  Ionic Valenz
   ZVAL   =   4.00  6.00  8.00  6.00
  Atomic Wigner-Seitz radii
   RWIGS  =  -1.00 -1.00 -1.00 -1.00
  virtual crystal weights
   VCA    =   1.00  1.00  1.00  1.00
   NELECT =     458.0000    total number of electrons
   NUPDOWN=      -1.0000    fix difference up-down

 DOS related values:
   EMIN   =  10.00;   EMAX   =-10.00  energy-range for DOS
   EFERMI =   0.00
   ISMEAR =     0;   SIGMA  =   0.05  broadening in eV -4-tet -1-fermi 0-gaus

 Electronic relaxation 2 (details)
   IALGO  =     58    algorithm
   LDIAG  =      T    sub-space diagonalisation (order eigenvalues)
   LSUBROT=      F    optimize rotation matrix (better conditioning)
   TURBO    =      0    0=normal 1=particle mesh
   IRESTART =      0    0=no restart 2=restart with 2 vectors
   NREBOOT  =      0    no. of reboots
   NMIN     =      0    reboot dimension
   EREF     =   0.00    reference energy to select bands
   IMIX   =      4    mixing-type and parameters
     AMIX     =   0.40;   BMIX     =  1.00
     AMIX_MAG =   1.60;   BMIX_MAG =  1.00
     AMIN     =   0.10
     WC   =   100.;   INIMIX=   1;  MIXPRE=   1;  MAXMIX= -45

 Intra band minimization:
   WEIMIN = 0.0000     energy-eigenvalue tresh-hold
   EBREAK =  0.82E-08  absolut break condition
   DEPER  =   0.30     relativ break condition

   TIME   =   0.40     timestep for ELM

  volume/ion in A,a.u.               =      23.03       155.40
  Fermi-wavevector in a.u.,A,eV,Ry     =   1.097571  2.074108 16.390423  1.204662
  Thomas-Fermi vector in A             =   2.233933

 Write flags
   LWAVE        =      F    write WAVECAR
   LDOWNSAMPLE  =      F    k-point downsampling of WAVECAR
   LCHARG       =      F    write CHGCAR
   LVTOT        =      F    write LOCPOT, total local potential
   LVHAR        =      F    write LOCPOT, Hartree potential only
   LELF         =      F    write electronic localiz. function (ELF)
   LORBIT       =      0    0 simple, 1 ext, 2 COOP (PROOUT), +10 PAW based schemes


 Dipole corrections
   LMONO  =      F    monopole corrections only (constant potential shift)
   LDIPOL =      T    correct potential (dipole corrections)
   IDIPOL =      3    1-x, 2-y, 3-z, 4-all directions
   EPSILON=  1.0000000 bulk dielectric constant

 Exchange correlation treatment:
   GGA     =    RE    GGA type
   LEXCH   =    40    internal setting for exchange type
   LIBXC   =     F    Libxc
   VOSKOWN =     0    Vosko Wilk Nusair interpolation
   LHFCALC =     F    Hartree Fock is set to
   LHFONE  =     F    Hartree Fock one center treatment
   AEXX    =    0.0000 exact exchange contribution

 Linear response parameters
   LEPSILON=     F    determine dielectric tensor
   LRPA    =     F    only Hartree local field effects (RPA)
   LNABLA  =     F    use nabla operator in PAW spheres
   LVEL    =     F    velocity operator in full k-point grid
   CSHIFT  =0.1000    complex shift for real part using Kramers Kronig
   OMEGAMAX=  -1.0    maximum frequency
   DEG_THRESHOLD= 0.2000000E-02 threshold for treating states as degnerate
   RTIME   =   -0.100 relaxation time in fs
  (WPLASMAI=    0.000 imaginary part of plasma frequency in eV, 0.658/RTIME)
   DFIELD  = 0.0000000 0.0000000 0.0000000 field for delta impulse in time

  Optional k-point grid parameters
   LKPOINTS_OPT  =     F    use optional k-point grid
   KPOINTS_OPT_MODE=     1    mode for optional k-point grid

 Orbital magnetization related:
   ORBITALMAG=     F  switch on orbital magnetization
   LCHIMAG   =     F  perturbation theory with respect to B field
   DQ        =  0.001000  dq finite difference perturbation B field
   LLRAUG    =     F  two centre corrections for induced B field



--------------------------------------------------------------------------------------------------------


 Static calculation
 charge density and potential will be updated during run
 non-spin polarized calculation
 Conjugate gradient for all bands (Freysoldt, et al. PRB 79, 241103 (2009))
 preconditioned conjugated gradient
 perform sub-space diagonalisation
    before iterative eigenvector-optimisation
 modified Broyden-mixing scheme, WC =      100.0
 initial mixing is a Kerker type mixing with AMIX =  0.4000 and BMIX =      1.0000
 Hartree-type preconditioning will be used
 using additional bands           75
 reciprocal scheme for non local part
 use partial core corrections
 no Harris-corrections to forces
 use gradient corrections
 use of overlap-Matrix (Vanderbilt PP)
 Gauss-broadening in eV      SIGMA  =   0.05


--------------------------------------------------------------------------------------------------------


  energy-cutoff  :      600.00
  volume of cell :     1519.82
      direct lattice vectors                 reciprocal lattice vectors
     8.440984654  0.000000000  0.000000000     0.118469591  0.000000000  0.000000000
     0.000000000  8.440984654  0.000000000     0.000000000  0.118469591  0.000000000
     0.000000000  0.000000000 21.330738491     0.000000000  0.000000000  0.046880702

  length of vectors
     8.440984654  8.440984654 21.330738491     0.118469591  0.118469591  0.046880702



 k-points in units of 2pi/SCALE and weight: pymatgen v2020.8.13 with grid density =
   0.00000000  0.00000000  0.00000000       0.250
   0.05923480  0.00000000  0.00000000       0.500
   0.05923480  0.05923480  0.00000000       0.250

 k-points in reciprocal lattice and weights: pymatgen v2020.8.13 with grid density =
   0.00000000  0.00000000  0.00000000       0.250
   0.50000000  0.00000000  0.00000000       0.500
   0.50000000  0.50000000  0.00000000       0.250

 position of ions in fractional coordinates (direct lattice)
   0.50000000  0.50000000  0.76505380
   0.50000000  0.50000000  0.81881752
   0.00000000  0.75000000  0.35160527
   0.25000000  0.00000000  0.35160527
   0.00000000  0.00000000  0.45053509
   0.25000000  0.75000000  0.45053509
   0.00000000  0.74993927  0.55008324
   0.25006073  0.00000000  0.55008324
   0.00000000  0.00000000  0.64874531
   0.24985833  0.75014167  0.64856955
   0.00000000  0.25000000  0.35160527
   0.25000000  0.50000000  0.35160527
   0.00000000  0.50000000  0.45053509
   0.25000000  0.25000000  0.45053509
   0.00000000  0.25006073  0.55008324
   0.25037838  0.50000000  0.55021952
   0.00000000  0.50000000  0.64861528
   0.24985833  0.24985833  0.64856955
   0.50000000  0.75000000  0.35160527
   0.75000000  0.00000000  0.35160527
   0.50000000  0.00000000  0.45053509
   0.75000000  0.75000000  0.45053509
   0.50000000  0.74962162  0.55021952
   0.74993927  0.00000000  0.55008324
   0.50000000  0.00000000  0.64861528
   0.75014167  0.75014167  0.64856955
   0.50000000  0.25000000  0.35160527
   0.75000000  0.50000000  0.35160527
   0.50000000  0.50000000  0.45053509
   0.75000000  0.25000000  0.45053509
   0.50000000  0.25037838  0.55021952
   0.74962162  0.50000000  0.55021952
   0.50000000  0.50000000  0.65061696
   0.75014167  0.24985833  0.64856955
   0.00000000  0.75000000  0.45053509
   0.25000000  0.00000000  0.45053509
   0.00000000  0.00000000  0.35160527
   0.25000000  0.75000000  0.35160527
   0.00000000  0.75021853  0.65097926
   0.24978147  0.00000000  0.65097926
   0.00000000  0.00000000  0.54980989
   0.24994577  0.75005423  0.54985911
   0.00000000  0.25000000  0.45053509
   0.25000000  0.50000000  0.45053509
   0.00000000  0.50000000  0.35160527
   0.25000000  0.25000000  0.35160527
   0.00000000  0.24978147  0.65097926
   0.24882271  0.50000000  0.65088287
   0.00000000  0.50000000  0.54976267
   0.24994577  0.24994577  0.54985911
   0.50000000  0.75000000  0.45053509
   0.75000000  0.00000000  0.45053509
   0.50000000  0.00000000  0.35160527
   0.75000000  0.75000000  0.35160527
   0.50000000  0.75117729  0.65088287
   0.75021853  0.00000000  0.65097926
   0.50000000  0.00000000  0.54976267
   0.75005423  0.75005423  0.54985911
   0.50000000  0.25000000  0.45053509
   0.75000000  0.50000000  0.45053509
   0.50000000  0.50000000  0.35160527
   0.75000000  0.25000000  0.35160527
   0.50000000  0.24882271  0.65088287
   0.75117729  0.50000000  0.65088287
   0.50000000  0.50000000  0.55023136
   0.75005423  0.24994577  0.54985911

 position of ions in cartesian coordinates  (Angst):
   4.22049233  4.22049233 16.31916259
   4.22049233  4.22049233 17.46598241
   0.00000000  6.33073849  7.50000000
   2.11024616  0.00000000  7.50000000
   0.00000000  0.00000000  9.61024616
   2.11024616  6.33073849  9.61024616
   0.00000000  6.33022585 11.73368172
   2.11075880  0.00000000 11.73368172
   0.00000000  0.00000000 13.83821654
   2.10905031  6.33193435 13.83446740
   0.00000000  2.11024616  7.50000000
   2.11024616  4.22049233  7.50000000
   0.00000000  4.22049233  9.61024616
   2.11024616  2.11024616  9.61024616
   0.00000000  2.11075880 11.73368172
   2.11344006  4.22049233 11.73658877
   0.00000000  4.22049233 13.83544293
   2.10905031  2.10905031 13.83446740
   4.22049233  6.33073849  7.50000000
   6.33073849  0.00000000  7.50000000
   4.22049233  0.00000000  9.61024616
   6.33073849  6.33073849  9.61024616
   4.22049233  6.32754460 11.73658877
   6.33022585  0.00000000 11.73368172
   4.22049233  0.00000000 13.83544293
   6.33193435  6.33193435 13.83446740
   4.22049233  2.11024616  7.50000000
   6.33073849  4.22049233  7.50000000
   4.22049233  4.22049233  9.61024616
   6.33073849  2.11024616  9.61024616
   4.22049233  2.11344006 11.73658877
   6.32754460  4.22049233 11.73658877
   4.22049233  4.22049233 13.87814023
   6.33193435  2.10905031 13.83446740
   0.00000000  6.33073849  9.61024616
   2.11024616  0.00000000  9.61024616
   0.00000000  0.00000000  7.50000000
   2.11024616  6.33073849  7.50000000
   0.00000000  6.33258312 13.88586825
   2.10840153  0.00000000 13.88586825
   0.00000000  0.00000000 11.72785099
   2.10978841  6.33119624 11.72890095
   0.00000000  2.11024616  9.61024616
   2.11024616  4.22049233  9.61024616
   0.00000000  4.22049233  7.50000000
   2.11024616  2.11024616  7.50000000
   0.00000000  2.10840153 13.88586825
   2.10030867  4.22049233 13.88381232
   0.00000000  4.22049233 11.72684365
   2.10978841  2.10978841 11.72890095
   4.22049233  6.33073849  9.61024616
   6.33073849  0.00000000  9.61024616
   4.22049233  0.00000000  7.50000000
   6.33073849  6.33073849  7.50000000
   4.22049233  6.34067598 13.88381232
   6.33258312  0.00000000 13.88586825
   4.22049233  0.00000000 11.72684365
   6.33119624  6.33119624 11.72890095
   4.22049233  2.11024616  9.61024616
   6.33073849  4.22049233  9.61024616
   4.22049233  4.22049233  7.50000000
   6.33073849  2.11024616  7.50000000
   4.22049233  2.10030867 13.88381232
   6.34067598  4.22049233 13.88381232
   4.22049233  4.22049233 11.73684118
   6.33119624  2.10978841 11.72890095



--------------------------------------------------------------------------------------------------------


 k-point   1 :   0.0000 0.0000 0.0000  plane waves:   50745
 k-point   2 :   0.5000 0.0000 0.0000  plane waves:   50798
 k-point   3 :   0.5000 0.5000 0.0000  plane waves:   50752

 maximum and minimum number of plane-waves per node :     25438    25340

 maximum number of plane-waves:     50798
 maximum index in each direction:
   IXMAX=   16   IYMAX=   16   IZMAX=   42
   IXMIN=  -17   IYMIN=  -17   IZMIN=  -42


 parallel 3D FFT for wavefunctions:
    minimum data exchange during FFTs selected (reduces bandwidth)
 parallel 3D FFT for charge:
    minimum data exchange during FFTs selected (reduces bandwidth)


 total amount of memory used by VASP MPI-rank0   132524. kBytes
=======================================================================

   base      :      30000. kBytes
   nonl-proj :      58834. kBytes
   fftplans  :      14615. kBytes
   grid      :      21323. kBytes
   one-center:        267. kBytes
   wavefun   :       7485. kBytes

     INWAV:  cpu time      0.0000: real time      0.0000
 Broyden mixing: mesh for mixing (old mesh)
   NGX = 33   NGY = 33   NGZ = 85
  (NGX  =140   NGY  =140   NGZ  =360)
  gives a total of  92565 points

 initial charge density was supplied:
 charge density of overlapping atoms calculated
 number of electron     458.0000000 magnetization
 keeping initial charge density in first step


--------------------------------------------------------------------------------------------------------


 Maximum index for augmentation-charges          608 (set IRDMAX)


--------------------------------------------------------------------------------------------------------


 First call to EWALD:  gamma=   0.154
 Maximum number of real-space cells 4x 4x 2
 Maximum number of reciprocal cells 2x 2x 5

    FEWALD:  cpu time      0.0015: real time      0.0015


--------------------------------------- Iteration      1(   1)  ---------------------------------------


    POTLOK:  cpu time      0.1081: real time      0.1085
    SETDIJ:  cpu time      0.0824: real time      0.0826
    TRIAL :  cpu time      3.3028: real time      3.3171
    CORREC:  cpu time      0.0003: real time      0.0003
    --------------------------------------------
      LOOP:  cpu time      3.4972: real time      3.5130

 eigenvalue-minimisations  :  2280
 total energy-change (2. order) : 0.3436795E+04  (-0.3129788E+05)
 number of electron     458.0000000 magnetization
 augmentation part      458.0000000 magnetization

 DIPCOR: dipole corrections for dipol
 direction  3 min pos     1,
 dipolmoment           0.000000      0.000000     -0.000256 electrons x Angstroem
 Tr[quadrupol]     -6318.706890

 energy correction for charged system         0.000000 eV
 dipol+quadrupol energy correction           -0.000000 eV
 added-field ion interaction          0.002074 eV  (added to PSCEN)


 Free energy of the ion-electron system (eV)
  ---------------------------------------------------
  alpha Z        PSCENC =       907.96617802
  Ewald energy   TEWEN  =    137143.22463369
  -Hartree energ DENC   =   -173242.07343078
  -exchange      EXHF   =         0.00000000
  -V(xc)+E(xc)   XCENC  =      1766.59592806
  PAW double counting   =     32340.89285313   -36127.75492224
  entropy T*S    EENTRO =        -0.01327885
  eigenvalues    EBANDS =     -7548.61841043
  atomic energy  EATOM  =     48196.57542979
  ---------------------------------------------------
  free energy    TOTEN  =      3436.79498039 eV

  energy without entropy =     3436.80825924  energy(sigma->0) =     3436.80161981


--------------------------------------------------------------------------------------------------------




--------------------------------------- Iteration      1(   2)  ---------------------------------------


    TRIAL :  cpu time      3.2123: real time      3.2259
    CORREC:  cpu time      0.0001: real time      0.0001
    --------------------------------------------
      LOOP:  cpu time      3.2138: real time      3.2320

 eigenvalue-minimisations  :  2280
 total energy-change (2. order) :-0.3664308E+04  (-0.3651553E+04)
 number of electron     458.0000000 magnetization
 augmentation part      458.0000000 magnetization

 DIPCOR: dipole corrections for dipol
 direction  3 min pos     1,
 dipolmoment           0.000000      0.000000     -0.000256 electrons x Angstroem
 Tr[quadrupol]     -6318.706890

 energy correction for charged system         0.000000 eV
 dipol+quadrupol energy correction           -0.000000 eV
 added-field ion interaction          0.002074 eV  (added to PSCEN)


 Free energy of the ion-electron system (eV)
  ---------------------------------------------------
  alpha Z        PSCENC =       907.96617802
  Ewald energy   TEWEN  =    137143.22463369
  -Hartree energ DENC   =   -173242.07343078
  -exchange      EXHF   =         0.00000000
  -V(xc)+E(xc)   XCENC  =      1766.59592806
  PAW double counting   =     32340.89285313   -36127.75492224
  entropy T*S    EENTRO =        -0.00000000
  eigenvalues    EBANDS =    -11212.93974102
  atomic energy  EATOM  =     48196.57542979
  ---------------------------------------------------
  free energy    TOTEN  =      -227.51307136 eV

  energy without entropy =     -227.51307136  energy(sigma->0) =     -227.51307136


--------------------------------------------------------------------------------------------------------




--------------------------------------- Iteration      1(   3)  ---------------------------------------


    TRIAL :  cpu time      4.3567: real time      4.3742
    CORREC:  cpu time      0.0001: real time      0.0001
    --------------------------------------------
      LOOP:  cpu time      4.3569: real time      4.3745

 eigenvalue-minimisations  :  2736
 total energy-change (2. order) :-0.2029654E+03  (-0.2026776E+03)
 number of electron     458.0000000 magnetization
 augmentation part      458.0000000 magnetization

 DIPCOR: dipole corrections for dipol
 direction  3 min pos     1,
 dipolmoment           0.000000      0.000000     -0.000256 electrons x Angstroem
 Tr[quadrupol]     -6318.706890

 energy correction for charged system         0.000000 eV
 dipol+quadrupol energy correction           -0.000000 eV
 added-field ion interaction          0.002074 eV  (added to PSCEN)


 Free energy of the ion-electron system (eV)
  ---------------------------------------------------
  alpha Z        PSCENC =       907.96617802
  Ewald energy   TEWEN  =    137143.22463369
  -Hartree energ DENC   =   -173242.07343078
  -exchange      EXHF   =         0.00000000
  -V(xc)+E(xc)   XCENC  =      1766.59592806
  PAW double counting   =     32340.89285313   -36127.75492224
  entropy T*S    EENTRO =        -0.00000000
  eigenvalues    EBANDS =    -11415.90517212
  atomic energy  EATOM  =     48196.57542979
  ---------------------------------------------------
  free energy    TOTEN  =      -430.47850246 eV

  energy without entropy =     -430.47850246  energy(sigma->0) =     -430.47850246


--------------------------------------------------------------------------------------------------------




--------------------------------------- Iteration      1(   4)  ---------------------------------------


    TRIAL :  cpu time      2.3258: real time      2.3356
    CORREC:  cpu time      0.0001: real time      0.0001
    --------------------------------------------
      LOOP:  cpu time      2.3261: real time      2.3360

 eigenvalue-minimisations  :  1824
 total energy-change (2. order) :-0.1666799E+01  (-0.1666692E+01)
 number of electron     458.0000000 magnetization
 augmentation part      458.0000000 magnetization

 DIPCOR: dipole corrections for dipol
 direction  3 min pos     1,
 dipolmoment           0.000000      0.000000     -0.000256 electrons x Angstroem
 Tr[quadrupol]     -6318.706890

 energy correction for charged system         0.000000 eV
 dipol+quadrupol energy correction           -0.000000 eV
 added-field ion interaction          0.002074 eV  (added to PSCEN)


 Free energy of the ion-electron system (eV)
  ---------------------------------------------------
  alpha Z        PSCENC =       907.96617802
  Ewald energy   TEWEN  =    137143.22463369
  -Hartree energ DENC   =   -173242.07343078
  -exchange      EXHF   =         0.00000000
  -V(xc)+E(xc)   XCENC  =      1766.59592806
  PAW double counting   =     32340.89285313   -36127.75492224
  entropy T*S    EENTRO =        -0.00000000
  eigenvalues    EBANDS =    -11417.57197146
  atomic energy  EATOM  =     48196.57542979
  ---------------------------------------------------
  free energy    TOTEN  =      -432.14530180 eV

  energy without entropy =     -432.14530180  energy(sigma->0) =     -432.14530180


--------------------------------------------------------------------------------------------------------




--------------------------------------- Iteration      1(   5)  ---------------------------------------


    TRIAL :  cpu time      4.3023: real time      4.3199
    CORREC:  cpu time      0.0001: real time      0.0001
    CHARGE:  cpu time      0.1343: real time      0.1348
    --------------------------------------------
      LOOP:  cpu time      4.4369: real time      4.4550

 eigenvalue-minimisations  :  2736
 total energy-change (2. order) :-0.2421686E-01  (-0.2421571E-01)
 number of electron     457.9999543 magnetization
 augmentation part      159.7018316 magnetization

 DIPCOR: dipole corrections for dipol
 direction  3 min pos     1,
 dipolmoment           0.000000      0.000000     -0.000256 electrons x Angstroem
 Tr[quadrupol]     -6318.706890

 energy correction for charged system         0.000000 eV
 dipol+quadrupol energy correction           -0.000000 eV
 added-field ion interaction          0.002074 eV  (added to PSCEN)


 Free energy of the ion-electron system (eV)
  ---------------------------------------------------
  alpha Z        PSCENC =       907.96617802
  Ewald energy   TEWEN  =    137143.22463369
  -Hartree energ DENC   =   -173242.07343078
  -exchange      EXHF   =         0.00000000
  -V(xc)+E(xc)   XCENC  =      1766.59592806
  PAW double counting   =     32340.89285313   -36127.75492224
  entropy T*S    EENTRO =        -0.00000000
  eigenvalues    EBANDS =    -11417.59618833
  atomic energy  EATOM  =     48196.57542979
  ---------------------------------------------------
  free energy    TOTEN  =      -432.16951866 eV

  energy without entropy =     -432.16951866  energy(sigma->0) =     -432.16951866


--------------------------------------------------------------------------------------------------------




--------------------------------------- Iteration      1(   6)  ---------------------------------------


    POTLOK:  cpu time      0.0658: real time      0.0661
    SETDIJ:  cpu time      0.0821: real time      0.0823
    TRIAL :  cpu time      0.9303: real time      0.9344
    CORREC:  cpu time      0.5790: real time      0.5809
    CHARGE:  cpu time      0.1281: real time      0.1287
    --------------------------------------------
      LOOP:  cpu time      1.7865: real time      1.7935

 eigenvalue-minimisations  :     0
 total energy-change (2. order) : 0.1728651E+03  (-0.9629959E+02)
 number of electron     457.9999550 magnetization
 augmentation part      156.7147587 magnetization

 DIPCOR: dipole corrections for dipol
 direction  3 min pos     1,
 dipolmoment           0.000000      0.000000      0.130594 electrons x Angstroem
 Tr[quadrupol]     -6352.916336

 energy correction for charged system         0.000000 eV
 dipol+quadrupol energy correction           -0.001015 eV
 added-field ion interaction         -1.057445 eV  (added to PSCEN)


 Free energy of the ion-electron system (eV)
  ---------------------------------------------------
  alpha Z        PSCENC =       904.51572811
  Ewald energy   TEWEN  =    137143.22463369
  -Hartree energ DENC   =   -177131.63685391
  -exchange      EXHF   =         0.00000000
  -V(xc)+E(xc)   XCENC  =      1890.24061519
  PAW double counting   =     37142.18503157   -40888.30261242
  entropy T*S    EENTRO =        -0.00000000
  eigenvalues    EBANDS =     -7516.10643338
  atomic energy  EATOM  =     48196.57542979
  ---------------------------------------------------
  free energy    TOTEN  =      -259.30446136 eV

  energy without entropy =     -259.30446136  energy(sigma->0) =     -259.30446136


--------------------------------------------------------------------------------------------------------




--------------------------------------- Iteration      1(   7)  ---------------------------------------


    POTLOK:  cpu time      0.0604: real time      0.0605
    SETDIJ:  cpu time      0.0823: real time      0.0825
    TRIAL :  cpu time      0.9190: real time      0.9231
    CORREC:  cpu time      0.5475: real time      0.5494
    CHARGE:  cpu time      0.1249: real time      0.1254
    --------------------------------------------
      LOOP:  cpu time      1.7354: real time      1.7421

 eigenvalue-minimisations  :     0
 total energy-change (2. order) :-0.9691356E+02  (-0.6365101E+01)
 number of electron     457.9999554 magnetization
 augmentation part      154.9918291 magnetization

 DIPCOR: dipole corrections for dipol
 direction  3 min pos     1,
 dipolmoment           0.000000      0.000000      0.151981 electrons x Angstroem
 Tr[quadrupol]     -6359.979752

 energy correction for charged system         0.000000 eV
 dipol+quadrupol energy correction           -0.001375 eV
 added-field ion interaction         -1.230617 eV  (added to PSCEN)


 Free energy of the ion-electron system (eV)
  ---------------------------------------------------
  alpha Z        PSCENC =       906.51236184
  Ewald energy   TEWEN  =    137143.22463369
  -Hartree energ DENC   =   -175230.49032906
  -exchange      EXHF   =         0.00000000
  -V(xc)+E(xc)   XCENC  =      1822.80434906
  PAW double counting   =     35967.63790594   -39783.68323519
  entropy T*S    EENTRO =        -0.00000000
  eigenvalues    EBANDS =     -9378.79913545
  atomic energy  EATOM  =     48196.57542979
  ---------------------------------------------------
  free energy    TOTEN  =      -356.21801938 eV

  energy without entropy =     -356.21801938  energy(sigma->0) =     -356.21801938


--------------------------------------------------------------------------------------------------------




--------------------------------------- Iteration      1(   8)  ---------------------------------------


    POTLOK:  cpu time      0.0607: real time      0.0609
    SETDIJ:  cpu time      0.0820: real time      0.0822
    TRIAL :  cpu time      0.9054: real time      0.9094
    CORREC:  cpu time      0.5500: real time      0.5518
    CHARGE:  cpu time      0.1277: real time      0.1282
    --------------------------------------------
      LOOP:  cpu time      1.7274: real time      1.7341

 eigenvalue-minimisations  :     0
 total energy-change (2. order) :-0.6379155E+01  (-0.3591338E+01)
 number of electron     457.9999553 magnetization
 augmentation part      155.1033119 magnetization

 DIPCOR: dipole corrections for dipol
 direction  3 min pos     1,
 dipolmoment           0.000000      0.000000      0.115675 electrons x Angstroem
 Tr[quadrupol]     -6359.023323

 energy correction for charged system         0.000000 eV
 dipol+quadrupol energy correction           -0.000797 eV
 added-field ion interaction         -0.936641 eV  (added to PSCEN)


 Free energy of the ion-electron system (eV)
  ---------------------------------------------------
  alpha Z        PSCENC =       906.79540691
  Ewald energy   TEWEN  =    137143.22463369
  -Hartree energ DENC   =   -175140.65230671
  -exchange      EXHF   =         0.00000000
  -V(xc)+E(xc)   XCENC  =      1813.91099906
  PAW double counting   =     35899.17526145   -39649.78758755
  entropy T*S    EENTRO =        -0.00000000
  eigenvalues    EBANDS =     -9531.83901091
  atomic energy  EATOM  =     48196.57542979
  ---------------------------------------------------
  free energy    TOTEN  =      -362.59717428 eV

  energy without entropy =     -362.59717428  energy(sigma->0) =     -362.59717428


--------------------------------------------------------------------------------------------------------




--------------------------------------- Iteration      1(   9)  ---------------------------------------


    POTLOK:  cpu time      0.0588: real time      0.0590
    SETDIJ:  cpu time      0.0826: real time      0.0827
    TRIAL :  cpu time      0.9036: real time      0.9076
    CORREC:  cpu time      0.5429: real time      0.5446
    CHARGE:  cpu time      0.1252: real time      0.1257
    --------------------------------------------
      LOOP:  cpu time      1.7141: real time      1.7207

 eigenvalue-minimisations  :     0
 total energy-change (2. order) :-0.3551667E+01  (-0.1736720E+01)
 number of electron     457.9999554 magnetization
 augmentation part      155.0985248 magnetization

 DIPCOR: dipole corrections for dipol
 direction  3 min pos     1,
 dipolmoment           0.000000      0.000000      0.144855 electrons x Angstroem
 Tr[quadrupol]     -6353.675213

 energy correction for charged system         0.000000 eV
 dipol+quadrupol energy correction           -0.001249 eV
 added-field ion interaction         -1.172918 eV  (added to PSCEN)


 Free energy of the ion-electron system (eV)
  ---------------------------------------------------
  alpha Z        PSCENC =       907.12002095
  Ewald energy   TEWEN  =    137143.22463369
  -Hartree energ DENC   =   -175062.82264724
  -exchange      EXHF   =         0.00000000
  -V(xc)+E(xc)   XCENC  =      1813.81650325
  PAW double counting   =     35855.91665268   -39637.41229977
  entropy T*S    EENTRO =        -0.00000000
  eigenvalues    EBANDS =     -9582.56713417
  atomic energy  EATOM  =     48196.57542979
  ---------------------------------------------------
  free energy    TOTEN  =      -366.14884082 eV

  energy without entropy =     -366.14884082  energy(sigma->0) =     -366.14884082


--------------------------------------------------------------------------------------------------------




--------------------------------------- Iteration      1(  10)  ---------------------------------------


    POTLOK:  cpu time      0.0591: real time      0.0592
    SETDIJ:  cpu time      0.0814: real time      0.0816
    TRIAL :  cpu time      0.9069: real time      0.9110
    CORREC:  cpu time      0.5435: real time      0.5454
    CHARGE:  cpu time      0.1263: real time      0.1267
    --------------------------------------------
      LOOP:  cpu time      1.7181: real time      1.7249

 eigenvalue-minimisations  :     0
 total energy-change (2. order) :-0.1738395E+01  (-0.6082045E+00)
 number of electron     457.9999554 magnetization
 augmentation part      155.0237796 magnetization

 DIPCOR: dipole corrections for dipol
 direction  3 min pos     1,
 dipolmoment           0.000000      0.000000      0.178664 electrons x Angstroem
 Tr[quadrupol]     -6351.339013

 energy correction for charged system         0.000000 eV
 dipol+quadrupol energy correction           -0.001900 eV
 added-field ion interaction         -1.446672 eV  (added to PSCEN)


 Free energy of the ion-electron system (eV)
  ---------------------------------------------------
  alpha Z        PSCENC =       906.79650849
  Ewald energy   TEWEN  =    137143.22463369
  -Hartree energ DENC   =   -174904.38355375
  -exchange      EXHF   =         0.00000000
  -V(xc)+E(xc)   XCENC  =      1812.22434786
  PAW double counting   =     35740.84759326   -39530.74306235
  entropy T*S    EENTRO =        -0.00000000
  eigenvalues    EBANDS =     -9732.42913304
  atomic energy  EATOM  =     48196.57542979
  ---------------------------------------------------
  free energy    TOTEN  =      -367.88723606 eV

  energy without entropy =     -367.88723606  energy(sigma->0) =     -367.88723606


--------------------------------------------------------------------------------------------------------




--------------------------------------- Iteration      1(  11)  ---------------------------------------


    POTLOK:  cpu time      0.0577: real time      0.0579
    SETDIJ:  cpu time      0.0825: real time      0.0826
    TRIAL :  cpu time      0.8946: real time      0.8985
    CORREC:  cpu time      0.5401: real time      0.5419
    CHARGE:  cpu time      0.1258: real time      0.1263
    --------------------------------------------
      LOOP:  cpu time      1.7019: real time      1.7084

 eigenvalue-minimisations  :     0
 total energy-change (2. order) :-0.6103818E+00  (-0.2108880E+00)
 number of electron     457.9999554 magnetization
 augmentation part      155.0899347 magnetization

 DIPCOR: dipole corrections for dipol
 direction  3 min pos     1,
 dipolmoment           0.000000      0.000000      0.158501 electrons x Angstroem
 Tr[quadrupol]     -6351.893212

 energy correction for charged system         0.000000 eV
 dipol+quadrupol energy correction           -0.001496 eV
 added-field ion interaction         -1.283407 eV  (added to PSCEN)


 Free energy of the ion-electron system (eV)
  ---------------------------------------------------
  alpha Z        PSCENC =       906.55496382
  Ewald energy   TEWEN  =    137143.22463369
  -Hartree energ DENC   =   -174824.29405598
  -exchange      EXHF   =         0.00000000
  -V(xc)+E(xc)   XCENC  =      1811.04867390
  PAW double counting   =     35667.38334723   -39449.56127046
  entropy T*S    EENTRO =        -0.00000000
  eigenvalues    EBANDS =     -9819.42933986
  atomic energy  EATOM  =     48196.57542979
  ---------------------------------------------------
  free energy    TOTEN  =      -368.49761788 eV

  energy without entropy =     -368.49761788  energy(sigma->0) =     -368.49761788


--------------------------------------------------------------------------------------------------------




--------------------------------------- Iteration      1(  12)  ---------------------------------------


    POTLOK:  cpu time      0.0575: real time      0.0577
    SETDIJ:  cpu time      0.0818: real time      0.0821
    TRIAL :  cpu time      0.9007: real time      0.9048
    CORREC:  cpu time      0.5329: real time      0.5347
    CHARGE:  cpu time      0.1266: real time      0.1271
    --------------------------------------------
      LOOP:  cpu time      1.7004: real time      1.7074

 eigenvalue-minimisations  :     0
 total energy-change (2. order) :-0.2108878E+00  (-0.7136912E-01)
 number of electron     457.9999554 magnetization
 augmentation part      155.1925328 magnetization

 DIPCOR: dipole corrections for dipol
 direction  3 min pos     1,
 dipolmoment           0.000000      0.000000      0.142370 electrons x Angstroem
 Tr[quadrupol]     -6352.509805

 energy correction for charged system         0.000000 eV
 dipol+quadrupol energy correction           -0.001207 eV
 added-field ion interaction         -1.152795 eV  (added to PSCEN)


 Free energy of the ion-electron system (eV)
  ---------------------------------------------------
  alpha Z        PSCENC =       906.67731149
  Ewald energy   TEWEN  =    137143.22463369
  -Hartree energ DENC   =   -174834.25017492
  -exchange      EXHF   =         0.00000000
  -V(xc)+E(xc)   XCENC  =      1811.11258952
  PAW double counting   =     35647.64069603   -39427.34868155
  entropy T*S    EENTRO =        -0.00000000
  eigenvalues    EBANDS =     -9812.34030975
  atomic energy  EATOM  =     48196.57542979
  ---------------------------------------------------
  free energy    TOTEN  =      -368.70850570 eV

  energy without entropy =     -368.70850570  energy(sigma->0) =     -368.70850570


--------------------------------------------------------------------------------------------------------




--------------------------------------- Iteration      1(  13)  ---------------------------------------


    POTLOK:  cpu time      0.0570: real time      0.0572
    SETDIJ:  cpu time      0.0815: real time      0.0817
    TRIAL :  cpu time      0.8961: real time      0.9003
    CORREC:  cpu time      0.5319: real time      0.5335
    CHARGE:  cpu time      0.1247: real time      0.1252
    --------------------------------------------
      LOOP:  cpu time      1.6927: real time      1.6994

 eigenvalue-minimisations  :     0
 total energy-change (2. order) :-0.7137821E-01  (-0.2987133E-01)
 number of electron     457.9999554 magnetization
 augmentation part      155.2405643 magnetization

 DIPCOR: dipole corrections for dipol
 direction  3 min pos     1,
 dipolmoment           0.000000      0.000000      0.137027 electrons x Angstroem
 Tr[quadrupol]     -6352.885591

 energy correction for charged system         0.000000 eV
 dipol+quadrupol energy correction           -0.001118 eV
 added-field ion interaction         -1.109533 eV  (added to PSCEN)


 Free energy of the ion-electron system (eV)
  ---------------------------------------------------
  alpha Z        PSCENC =       906.81443792
  Ewald energy   TEWEN  =    137143.22463369
  -Hartree energ DENC   =   -174859.44180360
  -exchange      EXHF   =         0.00000000
  -V(xc)+E(xc)   XCENC  =      1811.36335574
  PAW double counting   =     35647.16609316   -39429.50716232
  entropy T*S    EENTRO =        -0.00000000
  eigenvalues    EBANDS =     -9784.97486829
  atomic energy  EATOM  =     48196.57542979
  ---------------------------------------------------
  free energy    TOTEN  =      -368.77988390 eV

  energy without entropy =     -368.77988390  energy(sigma->0) =     -368.77988390


--------------------------------------------------------------------------------------------------------




--------------------------------------- Iteration      1(  14)  ---------------------------------------


    POTLOK:  cpu time      0.0583: real time      0.0584
    SETDIJ:  cpu time      0.0828: real time      0.0830
    TRIAL :  cpu time      0.8932: real time      0.8972
    CORREC:  cpu time      0.5294: real time      0.5312
    CHARGE:  cpu time      0.1280: real time      0.1286
    --------------------------------------------
      LOOP:  cpu time      1.6935: real time      1.7001

 eigenvalue-minimisations  :     0
 total energy-change (2. order) :-0.2989613E-01  (-0.1325283E-01)
 number of electron     457.9999554 magnetization
 augmentation part      155.2322275 magnetization

 DIPCOR: dipole corrections for dipol
 direction  3 min pos     1,
 dipolmoment           0.000000      0.000000      0.135492 electrons x Angstroem
 Tr[quadrupol]     -6353.157920

 energy correction for charged system         0.000000 eV
 dipol+quadrupol energy correction           -0.001093 eV
 added-field ion interaction         -1.097104 eV  (added to PSCEN)


 Free energy of the ion-electron system (eV)
  ---------------------------------------------------
  alpha Z        PSCENC =       906.85956440
  Ewald energy   TEWEN  =    137143.22463369
  -Hartree energ DENC   =   -174872.70271337
  -exchange      EXHF   =         0.00000000
  -V(xc)+E(xc)   XCENC  =      1811.41449779
  PAW double counting   =     35649.65858945   -39433.83757809
  entropy T*S    EENTRO =        -0.00000000
  eigenvalues    EBANDS =     -9770.00220370
  atomic energy  EATOM  =     48196.57542979
  ---------------------------------------------------
  free energy    TOTEN  =      -368.80978003 eV

  energy without entropy =     -368.80978003  energy(sigma->0) =     -368.80978003


--------------------------------------------------------------------------------------------------------




--------------------------------------- Iteration      1(  15)  ---------------------------------------


    POTLOK:  cpu time      0.0575: real time      0.0577
    SETDIJ:  cpu time      0.0830: real time      0.0832
    TRIAL :  cpu time      0.8956: real time      0.8996
    CORREC:  cpu time      0.5314: real time      0.5331
    CHARGE:  cpu time      0.1250: real time      0.1255
    --------------------------------------------
      LOOP:  cpu time      1.6937: real time      1.7003

 eigenvalue-minimisations  :     0
 total energy-change (2. order) :-0.1326502E-01  (-0.5991149E-02)
 number of electron     457.9999554 magnetization
 augmentation part      155.2162868 magnetization

 DIPCOR: dipole corrections for dipol
 direction  3 min pos     1,
 dipolmoment           0.000000      0.000000      0.134583 electrons x Angstroem
 Tr[quadrupol]     -6353.386357

 energy correction for charged system         0.000000 eV
 dipol+quadrupol energy correction           -0.001078 eV
 added-field ion interaction         -1.089739 eV  (added to PSCEN)


 Free energy of the ion-electron system (eV)
  ---------------------------------------------------
  alpha Z        PSCENC =       906.86684711
  Ewald energy   TEWEN  =    137143.22463369
  -Hartree energ DENC   =   -174880.04457295
  -exchange      EXHF   =         0.00000000
  -V(xc)+E(xc)   XCENC  =      1811.43207307
  PAW double counting   =     35654.00776961   -39437.64882771
  entropy T*S    EENTRO =        -0.00000000
  eigenvalues    EBANDS =     -9763.23639766
  atomic energy  EATOM  =     48196.57542979
  ---------------------------------------------------
  free energy    TOTEN  =      -368.82304505 eV

  energy without entropy =     -368.82304505  energy(sigma->0) =     -368.82304505


--------------------------------------------------------------------------------------------------------




--------------------------------------- Iteration      1(  16)  ---------------------------------------


    POTLOK:  cpu time      0.0580: real time      0.0581
    SETDIJ:  cpu time      0.0836: real time      0.0838
    TRIAL :  cpu time      0.8920: real time      0.8960
    CORREC:  cpu time      0.5346: real time      0.5364
    CHARGE:  cpu time      0.1269: real time      0.1274
    --------------------------------------------
      LOOP:  cpu time      1.6958: real time      1.7025

 eigenvalue-minimisations  :     0
 total energy-change (2. order) :-0.5992439E-02  (-0.2278651E-02)
 number of electron     457.9999554 magnetization
 augmentation part      155.2119460 magnetization

 DIPCOR: dipole corrections for dipol
 direction  3 min pos     1,
 dipolmoment           0.000000      0.000000      0.135278 electrons x Angstroem
 Tr[quadrupol]     -6353.524667

 energy correction for charged system         0.000000 eV
 dipol+quadrupol energy correction           -0.001089 eV
 added-field ion interaction         -1.095372 eV  (added to PSCEN)


 Free energy of the ion-electron system (eV)
  ---------------------------------------------------
  alpha Z        PSCENC =       906.87482706
  Ewald energy   TEWEN  =    137143.22463369
  -Hartree energ DENC   =   -174887.83045461
  -exchange      EXHF   =         0.00000000
  -V(xc)+E(xc)   XCENC  =      1811.51214367
  PAW double counting   =     35659.06179444   -39441.97302312
  entropy T*S    EENTRO =        -0.00000000
  eigenvalues    EBANDS =     -9756.27438841
  atomic energy  EATOM  =     48196.57542979
  ---------------------------------------------------
  free energy    TOTEN  =      -368.82903749 eV

  energy without entropy =     -368.82903749  energy(sigma->0) =     -368.82903749


--------------------------------------------------------------------------------------------------------




--------------------------------------- Iteration      1(  17)  ---------------------------------------


    POTLOK:  cpu time      0.0585: real time      0.0588
    SETDIJ:  cpu time      0.0827: real time      0.0829
    TRIAL :  cpu time      0.8897: real time      0.8937
    CORREC:  cpu time      0.5305: real time      0.5323
    CHARGE:  cpu time      0.1243: real time      0.1248
    --------------------------------------------
      LOOP:  cpu time      1.6868: real time      1.6934

 eigenvalue-minimisations  :     0
 total energy-change (2. order) :-0.2275253E-02  (-0.8631559E-03)
 number of electron     457.9999554 magnetization
 augmentation part      155.2125705 magnetization

 DIPCOR: dipole corrections for dipol
 direction  3 min pos     1,
 dipolmoment           0.000000      0.000000      0.137623 electrons x Angstroem
 Tr[quadrupol]     -6353.555723

 energy correction for charged system         0.000000 eV
 dipol+quadrupol energy correction           -0.001128 eV
 added-field ion interaction         -1.114360 eV  (added to PSCEN)


 Free energy of the ion-electron system (eV)
  ---------------------------------------------------
  alpha Z        PSCENC =       906.86575859
  Ewald energy   TEWEN  =    137143.22463369
  -Hartree energ DENC   =   -174892.26689534
  -exchange      EXHF   =         0.00000000
  -V(xc)+E(xc)   XCENC  =      1811.55791018
  PAW double counting   =     35662.19245997   -39445.17267796
  entropy T*S    EENTRO =        -0.00000000
  eigenvalues    EBANDS =     -9751.80793166
  atomic energy  EATOM  =     48196.57542979
  ---------------------------------------------------
  free energy    TOTEN  =      -368.83131274 eV

  energy without entropy =     -368.83131274  energy(sigma->0) =     -368.83131274


--------------------------------------------------------------------------------------------------------




--------------------------------------- Iteration      1(  18)  ---------------------------------------


    POTLOK:  cpu time      0.0579: real time      0.0580
    SETDIJ:  cpu time      0.0828: real time      0.0830
    TRIAL :  cpu time      0.8891: real time      0.8932
    CORREC:  cpu time      0.5283: real time      0.5300
    CHARGE:  cpu time      0.1259: real time      0.1264
    --------------------------------------------
      LOOP:  cpu time      1.6856: real time      1.6922

 eigenvalue-minimisations  :     0
 total energy-change (2. order) :-0.8614518E-03  (-0.3398675E-03)
 number of electron     457.9999554 magnetization
 augmentation part      155.2134341 magnetization

 DIPCOR: dipole corrections for dipol
 direction  3 min pos     1,
 dipolmoment           0.000000      0.000000      0.139496 electrons x Angstroem
 Tr[quadrupol]     -6353.532772

 energy correction for charged system         0.000000 eV
 dipol+quadrupol energy correction           -0.001158 eV
 added-field ion interaction         -1.129521 eV  (added to PSCEN)


 Free energy of the ion-electron system (eV)
  ---------------------------------------------------
  alpha Z        PSCENC =       906.84357027
  Ewald energy   TEWEN  =    137143.22463369
  -Hartree energ DENC   =   -174892.96579998
  -exchange      EXHF   =         0.00000000
  -V(xc)+E(xc)   XCENC  =      1811.57376762
  PAW double counting   =     35664.36249521   -39447.50036063
  entropy T*S    EENTRO =        -0.00000000
  eigenvalues    EBANDS =     -9750.94591016
  atomic energy  EATOM  =     48196.57542979
  ---------------------------------------------------
  free energy    TOTEN  =      -368.83217420 eV

  energy without entropy =     -368.83217420  energy(sigma->0) =     -368.83217420


--------------------------------------------------------------------------------------------------------




--------------------------------------- Iteration      1(  19)  ---------------------------------------


    POTLOK:  cpu time      0.0577: real time      0.0578
    SETDIJ:  cpu time      0.0821: real time      0.0823
    TRIAL :  cpu time      0.8891: real time      0.8932
    CORREC:  cpu time      0.5338: real time      0.5355
    CHARGE:  cpu time      0.1251: real time      0.1256
    --------------------------------------------
      LOOP:  cpu time      1.6890: real time      1.6956

 eigenvalue-minimisations  :     0
 total energy-change (2. order) :-0.3396968E-03  (-0.1342484E-03)
 number of electron     457.9999554 magnetization
[...]
    256       5.8792      0.00000
    257       6.0681      0.00000
    258       6.0681      0.00000
    259       6.2576      0.00000
    260       6.3661      0.00000
    261       6.3715      0.00000
    262       6.4177      0.00000
    263       6.6289      0.00000
    264       6.7950      0.00000
    265       6.7954      0.00000
    266       6.8151      0.00000
    267       7.0033      0.00000
    268       7.1032      0.00000
    269       7.1766      0.00000
    270       7.1972      0.00000
    271       7.2233      0.00000
    272       7.6108      0.00000
    273       7.9237      0.00000
    274       7.9270      0.00000
    275       7.9528      0.00000
    276       8.1644      0.00000
    277       8.1954      0.00000
    278       8.2055      0.00000
    279       8.2154      0.00000
    280       8.2310      0.00000
    281       8.2640      0.00000
    282       8.3048      0.00000
    283       8.3200      0.00000
    284       8.3846      0.00000
    285       8.3933      0.00000
    286       8.4158      0.00000
    287       8.5254      0.00000
    288       8.8198      0.00000
    289       8.8688      0.00000
    290       9.0101      0.00000
    291       9.0881      0.00000
    292       9.1200      0.00000
    293       9.1286      0.00000
    294       9.2147      0.00000
    295       9.2180      0.00000
    296       9.2611      0.00000
    297       9.3318      0.00000
    298       9.3588      0.00000
    299       9.3818      0.00000
    300       9.6306      0.00000
    301       9.8108      0.00000
    302       9.8223      0.00000
    303       9.9407      0.00000
    304      10.1607      0.00000


--------------------------------------------------------------------------------------------------------


 soft charge-density along one line, spin component           1
         0         1         2         3         4         5         6         7         8         9
 total charge-density along one line

 pseudopotential strength for first ion, spin component:           1
 10.253  13.636   0.000   0.037   0.000  -0.000  -0.105  -0.000
 13.636  18.135   0.000   0.049   0.000  -0.000  -0.140  -0.000
  0.000   0.000  -4.279  -0.000  -0.000   8.366   0.000   0.000
  0.037   0.049  -0.000  -4.337  -0.000   0.000   8.462   0.000
  0.000   0.000  -0.000  -0.000  -4.279   0.000   0.000   8.366
 -0.000  -0.000   8.366   0.000   0.000 -18.488  -0.000  -0.000
 -0.105  -0.140   0.000   8.462   0.000  -0.000 -18.645  -0.000
 -0.000  -0.000   0.000   0.000   8.366  -0.000  -0.000 -18.488
 total augmentation occupancy for first ion, spin component:           1
  7.811  -3.568   0.000   2.019   0.000   0.000   0.380   0.000
 -3.568   1.990   0.000  -1.546   0.000   0.000  -0.233   0.000
  0.000   0.000   0.845   0.000   0.000   0.063   0.000   0.000
  2.019  -1.546   0.000   2.244  -0.000   0.000   0.217   0.000
  0.000   0.000   0.000  -0.000   0.845  -0.000   0.000   0.063
  0.000   0.000   0.063   0.000  -0.000   0.005   0.000   0.000
  0.380  -0.233   0.000   0.217   0.000   0.000   0.030   0.000
  0.000   0.000   0.000   0.000   0.063   0.000   0.000   0.005


------------------------ aborting loop because EDIFF is reached ----------------------------------------


    FORLOC:  cpu time      0.0031: real time      0.0031
    FORNL :  cpu time      0.3050: real time      0.3065
    STRESS:  cpu time      2.1747: real time      2.1835
    FORCOR:  cpu time      0.0520: real time      0.0521
    OFIELD:  cpu time      0.0001: real time      0.0001
    FORVDW:  cpu time      1.7138: real time      1.7168

  FORCE on cell =-STRESS in cart. coord.  units (eV):
  Direction    XX          YY          ZZ          XY          YZ          ZX
  --------------------------------------------------------------------------------------
  Alpha Z   907.96410   907.96410   907.96410
  Ewald  157644.15472157644.15472************     0.00000     0.00000    -0.00000
  Hartree168068.03782168068.03782************    -0.00000    -0.00000    -0.00000
  E(xc)   -2509.91696 -2509.91696 -2516.40815     0.00000     0.00000    -0.00000
  Local  ************************335293.25021     0.00000     0.00000    -0.00000
  n-local -2812.92643 -2813.69954 -2844.49872    -0.00001    -0.00001     0.00000
  augment  1052.78901  1052.78901  1042.75632    -0.00000     0.00000    -0.00000
  Kinetic  7500.94982  7503.43415  7523.20827     0.00005    -0.00000     0.00002
  Fock        0.00000     0.00000     0.00000     0.00000     0.00000     0.00000
  vdW       -21.67641   -21.67643   -16.56908     0.00000     0.00000    -0.00000
  -------------------------------------------------------------------------------------
  Total     -25.97632   -25.97632    -1.60866     0.00000     0.00000     0.00000
  in kB     -27.38395   -27.38395    -1.69583     0.00000     0.00000     0.00000
  external pressure =      -18.82 kB  Pullay stress =        0.00 kB


 VOLUME and BASIS-vectors are now :
 -----------------------------------------------------------------------------
  energy-cutoff  :      600.00
  volume of cell :     1519.82
      direct lattice vectors                 reciprocal lattice vectors
     8.440984654  0.000000000  0.000000000     0.118469591  0.000000000  0.000000000
     0.000000000  8.440984654  0.000000000     0.000000000  0.118469591  0.000000000
     0.000000000  0.000000000 21.330738491     0.000000000  0.000000000  0.046880702

  length of vectors
     8.440984654  8.440984654 21.330738491     0.118469591  0.118469591  0.046880702


 FORCES acting on ions:
    Electron-Ion                     Ewald-Force                    Non-Local-Force
 -----------------------------------------------------------------------------------------------
   0.119E-12 0.185E-11 -.837E+03   0.107E-13 0.622E-14 0.811E+03   -.323E-22 0.109E-22 0.266E+02
   0.408E-12 0.105E-11 -.145E+04   -.888E-14 0.222E-15 0.151E+04   -.255E-22 0.571E-23 -.596E+02
   -.660E-13 -.128E+00 0.208E+04   -.132E-12 0.129E+00 -.207E+04   0.187E-21 -.216E-03 -.716E+01
   0.128E+00 0.323E-12 0.208E+04   -.129E+00 0.537E-13 -.207E+04   0.216E-03 0.132E-21 -.716E+01
   -.758E-13 -.153E-12 0.713E+03   -.151E-10 0.151E-10 -.714E+03   -.934E-23 -.869E-23 0.505E+00
   0.472E+00 -.472E+00 0.714E+03   -.467E+00 0.467E+00 -.715E+03   -.275E-02 0.275E-02 0.532E+00
   -.591E-13 -.284E+01 -.643E+03   0.162E-11 0.283E+01 0.643E+03   0.778E-22 0.140E-01 -.159E+00
   0.284E+01 -.710E-12 -.643E+03   -.283E+01 -.144E-11 0.643E+03   -.140E-01 0.696E-22 -.159E+00
   -.655E-13 0.202E-12 -.200E+04   0.419E-12 -.348E-12 0.200E+04   0.938E-22 0.134E-21 0.608E+01
   0.180E+02 -.180E+02 -.198E+04   -.182E+02 0.182E+02 0.198E+04   0.965E-01 -.965E-01 0.618E+01
   -.515E-13 0.128E+00 0.208E+04   -.356E-12 -.129E+00 -.207E+04   -.297E-22 0.216E-03 -.716E+01
   0.124E+00 0.633E-12 0.208E+04   -.121E+00 0.131E-10 -.207E+04   -.186E-02 -.467E-22 -.716E+01
   -.699E-13 0.613E-12 0.714E+03   -.166E-10 0.391E-13 -.715E+03   -.529E-23 0.200E-22 0.470E+00
   0.472E+00 0.472E+00 0.714E+03   -.467E+00 -.467E+00 -.715E+03   -.275E-02 -.275E-02 0.532E+00
   -.654E-13 0.284E+01 -.643E+03   0.298E-11 -.283E+01 0.643E+03   -.398E-22 -.140E-01 -.159E+00
   0.413E+01 0.685E-12 -.636E+03   -.405E+01 -.995E-13 0.636E+03   -.801E-01 -.145E-22 -.262E+00
   -.227E-13 -.141E-12 -.199E+04   0.142E-13 -.355E-14 0.198E+04   0.165E-22 -.812E-22 0.609E+01
   0.180E+02 0.180E+02 -.198E+04   -.182E+02 -.182E+02 0.198E+04   0.965E-01 0.965E-01 0.618E+01
   0.707E-12 -.124E+00 0.208E+04   -.128E-10 0.121E+00 -.207E+04   0.349E-22 0.186E-02 -.716E+01
   -.128E+00 0.323E-12 0.208E+04   0.129E+00 0.702E-13 -.207E+04   -.216E-03 -.214E-22 -.716E+01
   0.637E-12 0.886E-12 0.714E+03   0.154E-11 0.150E-10 -.715E+03   -.693E-22 -.469E-23 0.470E+00
   -.472E+00 -.472E+00 0.714E+03   0.467E+00 0.467E+00 -.715E+03   0.275E-02 0.275E-02 0.532E+00
   0.613E-12 -.413E+01 -.636E+03   -.153E-11 0.405E+01 0.636E+03   -.530E-22 0.801E-01 -.262E+00
   -.284E+01 -.714E-12 -.643E+03   0.283E+01 -.153E-11 0.643E+03   0.140E-01 -.431E-22 -.159E+00
   0.683E-12 -.909E-12 -.199E+04   0.853E-13 -.249E-13 0.198E+04   0.106E-22 -.200E-22 0.609E+01
   -.180E+02 -.180E+02 -.198E+04   0.182E+02 0.182E+02 0.198E+04   -.965E-01 -.965E-01 0.618E+01
   0.693E-12 0.124E+00 0.208E+04   -.132E-10 -.121E+00 -.207E+04   0.126E-22 -.186E-02 -.716E+01
   -.124E+00 -.215E-11 0.208E+04   0.121E+00 0.131E-10 -.207E+04   0.186E-02 -.131E-21 -.716E+01
   0.676E-12 0.646E-12 0.714E+03   -.249E-13 0.924E-13 -.715E+03   0.296E-23 -.746E-23 0.603E+00
   -.472E+00 0.472E+00 0.714E+03   0.467E+00 -.467E+00 -.715E+03   0.275E-02 -.275E-02 0.532E+00
   0.620E-12 0.413E+01 -.636E+03   0.000E+00 -.405E+01 0.636E+03   0.217E-22 -.801E-01 -.262E+00
   -.413E+01 -.162E-11 -.636E+03   0.405E+01 -.284E-13 0.636E+03   0.801E-01 0.844E-23 -.262E+00
   0.714E-12 0.262E-11 -.191E+04   0.675E-13 -.711E-14 0.191E+04   0.329E-22 -.133E-21 0.399E+01
   -.180E+02 0.180E+02 -.198E+04   0.182E+02 -.182E+02 0.198E+04   -.965E-01 0.965E-01 0.618E+01
   -.529E-13 -.404E+00 0.535E+03   0.950E-13 0.400E+00 -.535E+03   -.359E-22 0.667E-02 -.925E-01
   0.404E+00 0.102E-11 0.535E+03   -.400E+00 -.444E-14 -.535E+03   -.667E-02 -.289E-21 -.925E-01
   -.391E-13 0.458E-12 0.156E+04   0.854E-11 -.844E-11 -.156E+04   0.389E-22 -.151E-21 0.341E+01
   0.939E-01 -.939E-01 0.156E+04   -.931E-01 0.931E-01 -.156E+04   -.107E-02 0.107E-02 0.341E+01
   0.410E-14 -.733E+01 -.152E+04   -.771E-12 0.727E+01 0.153E+04   -.630E-22 0.531E-01 -.495E+01
   0.733E+01 0.310E-12 -.152E+04   -.727E+01 0.856E-12 0.153E+04   -.531E-01 -.521E-22 -.495E+01
   -.271E-13 -.412E-12 -.478E+03   -.711E-14 0.497E-13 0.478E+03   -.348E-22 0.571E-22 0.258E+00
   0.257E+01 -.257E+01 -.473E+03   -.256E+01 0.256E+01 0.473E+03   -.606E-02 0.606E-02 0.328E+00
   -.441E-13 0.404E+00 0.535E+03   0.924E-13 -.400E+00 -.535E+03   0.812E-22 -.667E-02 -.925E-01
   0.380E+00 0.103E-11 0.535E+03   -.406E+00 -.762E-11 -.535E+03   0.348E-01 -.110E-22 -.113E+00
   -.242E-13 0.889E-12 0.156E+04   0.846E-11 -.867E-12 -.156E+04   -.707E-22 -.294E-22 0.341E+01
   0.939E-01 0.939E-01 0.156E+04   -.931E-01 -.931E-01 -.156E+04   -.107E-02 -.107E-02 0.341E+01
   -.124E-13 0.733E+01 -.152E+04   -.782E-12 -.727E+01 0.153E+04   0.136E-22 -.531E-01 -.495E+01
   0.236E+02 0.411E-12 -.149E+04   -.233E+02 0.818E-11 0.150E+04   -.344E+00 0.216E-21 -.497E+01
   -.155E-13 0.234E-12 -.473E+03   -.742E-11 0.711E-14 0.473E+03   -.794E-23 0.190E-22 0.282E+00
   0.257E+01 0.257E+01 -.473E+03   -.256E+01 -.256E+01 0.473E+03   -.606E-02 -.606E-02 0.328E+00
   0.299E-12 -.380E+00 0.535E+03   0.763E-11 0.406E+00 -.535E+03   0.131E-22 -.348E-01 -.113E+00
   -.404E+00 0.103E-11 0.535E+03   0.400E+00 -.568E-13 -.535E+03   0.667E-02 -.411E-22 -.925E-01
   0.339E-12 0.135E-13 0.156E+04   0.918E-12 -.848E-11 -.156E+04   -.191E-22 0.144E-21 0.341E+01
   -.939E-01 -.939E-01 0.156E+04   0.931E-01 0.931E-01 -.156E+04   0.107E-02 0.107E-02 0.341E+01
   0.359E-12 -.236E+02 -.149E+04   -.815E-11 0.233E+02 0.150E+04   -.103E-21 0.344E+00 -.497E+01
   -.733E+01 0.269E-12 -.152E+04   0.727E+01 0.888E-12 0.153E+04   0.531E-01 0.807E-22 -.495E+01
   0.274E-12 -.741E-13 -.473E+03   -.355E-13 0.743E-11 0.473E+03   -.406E-22 -.147E-22 0.282E+00
   -.257E+01 -.257E+01 -.473E+03   0.256E+01 0.256E+01 0.473E+03   0.606E-02 0.606E-02 0.328E+00
   0.293E-12 0.380E+00 0.535E+03   0.769E-11 -.406E+00 -.535E+03   0.289E-22 0.348E-01 -.113E+00
   -.380E+00 -.155E-11 0.535E+03   0.406E+00 -.770E-11 -.535E+03   -.348E-01 0.938E-23 -.113E+00
   0.307E-12 0.140E-11 0.156E+04   0.876E-12 -.888E-12 -.156E+04   0.264E-22 -.796E-23 0.340E+01
   -.939E-01 0.939E-01 0.156E+04   0.931E-01 -.931E-01 -.156E+04   0.107E-02 -.107E-02 0.341E+01
   0.365E-12 0.236E+02 -.149E+04   -.818E-11 -.233E+02 0.150E+04   -.113E-21 -.344E+00 -.497E+01
   -.236E+02 0.193E-11 -.149E+04   0.233E+02 0.818E-11 0.150E+04   0.344E+00 -.659E-22 -.497E+01
   0.249E-12 0.121E-12 -.473E+03   -.782E-13 0.355E-13 0.473E+03   0.300E-23 -.444E-22 -.197E+00
   -.257E+01 0.257E+01 -.473E+03   0.256E+01 -.256E+01 0.473E+03   0.606E-02 -.606E-02 0.328E+00
 -----------------------------------------------------------------------------------------------
   0.169E-10 0.322E-10 0.521E+02   -.959E-13 0.604E-13 0.972E-11   0.390E-16 0.156E-16 -.521E+02


 POSITION                                       TOTAL-FORCE (eV/Angst)
 -----------------------------------------------------------------------------------
      4.22049      4.22049     16.31916        -0.000000      0.000000      0.008800
      4.22049      4.22049     17.46598        -0.000000      0.000000      0.010561
      0.00000      6.33074      7.50000        -0.000000      0.000005      0.335631
      2.11025      0.00000      7.50000        -0.000005      0.000000      0.335631
      0.00000      0.00000      9.61025        -0.000000      0.000000      0.073196
      2.11025      6.33074      9.61025         0.001473     -0.001473      0.074773
      0.00000      6.33023     11.73368        -0.000000      0.000587     -0.003576
      2.11076      0.00000     11.73368        -0.000587      0.000000     -0.003576
      0.00000      0.00000     13.83822        -0.000000      0.000000      0.000468
      2.10905      6.33193     13.83447        -0.000408      0.000408      0.003654
      0.00000      2.11025      7.50000        -0.000000     -0.000005      0.335631
      2.11025      4.22049      7.50000         0.000481      0.000000      0.335768
      0.00000      4.22049      9.61025        -0.000000      0.000000      0.081569
      2.11025      2.11025      9.61025         0.001473      0.001473      0.074773
      0.00000      2.11076     11.73368        -0.000000     -0.000587     -0.003576
      2.11344      4.22049     11.73659        -0.003814      0.000000      0.000084
      0.00000      4.22049     13.83544        -0.000000      0.000000      0.001179
      2.10905      2.10905     13.83447        -0.000408     -0.000408      0.003654
      4.22049      6.33074      7.50000        -0.000000     -0.000481      0.335768
      6.33074      0.00000      7.50000         0.000005      0.000000      0.335631
      4.22049      0.00000      9.61025        -0.000000      0.000000      0.081569
      6.33074      6.33074      9.61025        -0.001473     -0.001473      0.074773
      4.22049      6.32754     11.73659        -0.000000      0.003814      0.000084
      6.33023      0.00000     11.73368         0.000587      0.000000     -0.003576
      4.22049      0.00000     13.83544        -0.000000      0.000000      0.001179
      6.33193      6.33193     13.83447         0.000408      0.000408      0.003654
      4.22049      2.11025      7.50000        -0.000000      0.000481      0.335768
      6.33074      4.22049      7.50000        -0.000481      0.000000      0.335768
      4.22049      4.22049      9.61025        -0.000000      0.000000      0.088092
      6.33074      2.11025      9.61025        -0.001473      0.001473      0.074773
      4.22049      2.11344     11.73659        -0.000000     -0.003814      0.000084
      6.32754      4.22049     11.73659         0.003814      0.000000      0.000084
      4.22049      4.22049     13.87814        -0.000000      0.000000      0.009220
      6.33193      2.10905     13.83447         0.000408     -0.000408      0.003654
      0.00000      6.33074      9.61025        -0.000000      0.001978      0.075626
      2.11025      0.00000      9.61025        -0.001978      0.000000      0.075626
      0.00000      0.00000      7.50000        -0.000000      0.000000     -0.501233
      2.11025      6.33074      7.50000        -0.000278      0.000278     -0.501012
      0.00000      6.33258     13.88587        -0.000000     -0.002904      0.000668
      2.10840      0.00000     13.88587         0.002904      0.000000      0.000668
      0.00000      0.00000     11.72785        -0.000000      0.000000      0.007085
      2.10979      6.33120     11.72890         0.003360     -0.003360      0.001106
      0.00000      2.11025      9.61025        -0.000000     -0.001978      0.075626
      2.11025      4.22049      9.61025         0.008934      0.000000      0.084727
      0.00000      4.22049      7.50000        -0.000000      0.000000     -0.501075
      2.11025      2.11025      7.50000        -0.000278     -0.000278     -0.501012
      0.00000      2.10840     13.88587        -0.000000      0.002904      0.000668
      2.10031      4.22049     13.88381        -0.001601      0.000000      0.000738
      0.00000      4.22049     11.72684        -0.000000      0.000000      0.005233
      2.10979      2.10979     11.72890         0.003360      0.003360      0.001106
      4.22049      6.33074      9.61025        -0.000000     -0.008934      0.084727
      6.33074      0.00000      9.61025         0.001978      0.000000      0.075626
      4.22049      0.00000      7.50000        -0.000000      0.000000     -0.501075
      6.33074      6.33074      7.50000         0.000278      0.000278     -0.501012
      4.22049      6.34068     13.88381        -0.000000      0.001601      0.000738
      6.33258      0.00000     13.88587        -0.002904      0.000000      0.000668
      4.22049      0.00000     11.72684        -0.000000      0.000000      0.005233
      6.33120      6.33120     11.72890        -0.003360     -0.003360      0.001106
      4.22049      2.11025      9.61025        -0.000000      0.008934      0.084727
      6.33074      4.22049      9.61025        -0.008934      0.000000      0.084727
      4.22049      4.22049      7.50000        -0.000000      0.000000     -0.501787
      6.33074      2.11025      7.50000         0.000278     -0.000278     -0.501012
      4.22049      2.10031     13.88381        -0.000000     -0.001601      0.000738
      6.34068      4.22049     13.88381         0.001601      0.000000      0.000738
      4.22049      4.22049     11.73684        -0.000000      0.000000     -0.000961
      6.33120      2.10979     11.72890        -0.003360      0.003360      0.001106
 -----------------------------------------------------------------------------------
    total drift:                                0.000000      0.000000     -0.008485


--------------------------------------------------------------------------------------------------------



  FREE ENERGIE OF THE ION-ELECTRON SYSTEM (eV)
  ---------------------------------------------------
  free  energy   TOTEN  =      -386.04685865 eV

  energy  without entropy=     -386.04685865  energy(sigma->0) =     -386.04685865



--------------------------------------------------------------------------------------------------------


    POTLOK:  cpu time      0.3201: real time      0.3208


--------------------------------------------------------------------------------------------------------


     LOOP+:  cpu time     53.4168: real time     53.6341
    4ORBIT:  cpu time      0.0000: real time      0.0000

 total amount of memory used by VASP MPI-rank0   132524. kBytes
=======================================================================

   base      :      30000. kBytes
   nonl-proj :      58834. kBytes
   fftplans  :      14615. kBytes
   grid      :      21323. kBytes
   one-center:        267. kBytes
   wavefun   :       7485. kBytes



 General timing and accounting informations for this job:
 ========================================================

                  Total CPU time used (sec):       56.568
                            User time (sec):       56.127
                          System time (sec):        0.441
                         Elapsed time (sec):       57.443

                   Maximum memory used (kb):      412556.
                   Average memory used (kb):          N/A

                          Minor page faults:        53457
                          Major page faults:           96
                 Voluntary context switches:         1782
