 vasp.6.3.0 20Jan22 (build Mar 11 2022 13:48:16) complex

 executed on             LinuxIFC date 2023.12.26  17:36:51
 running on  304 total cores
 distrk:  each k-point on  304 cores,    1 groups
 distr:  one band on NCORE=   2 cores,  152 groups


--------------------------------------------------------------------------------------------------------


 INCAR:
   SYSTEM = MgO-rocksalt
   ISMEAR = 0
   SIGMA = 0.05
   EDIFF = 1E-5
   ALGO = ALL
   ISTART = 0
   IBRION = -1
   NSW = 0
   ISYM = 2
   ISIF = 2
   DIPOL = 0.5 0.5 0.5
   IDIPOL = 3
   LDIPOL = .TRUE.
   GGA = MK
   LUSE_VDW = .TRUE.
   PARAM1 = 0.1234
   PARAM2 = 0.711357
   ZAB_VDW = -1.8867
   AGGAC = 0.0
   ENCUT = 600
   PREC = Accurate
   LASPH = .TRUE.
   LREAL = .FALSE.
   ISPIN = 1
   NELM = 200
   NELMIN = 8
   NCORE = 2
   KPAR = 1
   LWAVE = .FALSE.
   LCHARG = .FALSE.

 POTCAR:    PAW_PBE Mg_pv 13Apr2007
 POTCAR:    PAW_PBE O 08Apr2002
 -----------------------------------------------------------------------------
|                                                                             |
|           W    W    AA    RRRRR   N    N  II  N    N   GGGG   !!!           |
|           W    W   A  A   R    R  NN   N  II  NN   N  G    G  !!!           |
|           W    W  A    A  R    R  N N  N  II  N N  N  G       !!!           |
|           W WW W  AAAAAA  RRRRR   N  N N  II  N  N N  G  GGG   !            |
|           WW  WW  A    A  R   R   N   NN  II  N   NN  G    G                |
|           W    W  A    A  R    R  N    N  II  N    N   GGGG   !!!           |
|                                                                             |
|     For optimal performance we recommend to set                             |
|       NCORE = 2 up to number-of-cores-per-socket                            |
|     NCORE specifies how many cores store one orbital (NPAR=cpu/NCORE).      |
|     This setting can greatly improve the performance of VASP for DFT.       |
|     The default, NCORE=1 might be grossly inefficient on modern             |
|     multi-core architectures or massively parallel machines. Do your        |
|     own testing! More info at https://www.vasp.at/wiki/index.php/NCORE      |
|     Unfortunately you need to use the default for GW and RPA                |
|     calculations (for HF NCORE is supported but not extensively tested      |
|     yet).                                                                   |
|                                                                             |
 -----------------------------------------------------------------------------

 -----------------------------------------------------------------------------
|                                                                             |
|               ----> ADVICE to this user running VASP <----                  |
|                                                                             |
|     You have switched on vdW-DFT.                                           |
|     This routine was written and supplied by Jiri Klimes. We recommend      |
|     that you carefully read and cite the following publications:            |
|       J. Klimes, D.R. Bowler, A. Michelides                                 |
|          J. Phys.: Cond Matt. 22 022201 (2010)                              |
|       J. Klimes, D.R. Bowler, A. Michelides                                 |
|          Phys. Rev. B. 83, 195131 (2011)                                    |
|     and references therein.                                                 |
|                                                                             |
 -----------------------------------------------------------------------------

 POTCAR:    PAW_PBE Mg_pv 13Apr2007
   SHA256 =  f474ac0dd33840b9ae76c01d57fea79fdf77cdfbb07d5ade72c65f83c709b62b Mg_pv/POTCAR
   COPYR  = (c) Copyright 13Apr2007 Georg Kresse
   COPYR  = This file is part of the software VASP. Any use, copying, and all other rights are regul
   COPYR  = If you do not have a valid VASP license, you may not use, copy or distribute this file.
   VRHFIN =Mg: p6s2
   LEXCH  = PE
   EATOM  =  1056.7344 eV,   77.6678 Ry

   TITEL  = PAW_PBE Mg_pv 13Apr2007
   LULTRA =        F    use ultrasoft PP ?
   IUNSCR =        1    unscreen: 0-lin 1-nonlin 2-no
   RPACOR =    1.500    partial core radius
   POMASS =   24.305; ZVAL   =    8.000    mass and valenz
   RCORE  =    2.000    outmost cutoff radius
   RWIGS  =    2.000; RWIGS  =    1.058    wigner-seitz radius (au A)
   ENMAX  =  403.929; ENMIN  =  302.947 eV
   RCLOC  =    1.506    cutoff for local pot
   LCOR   =        T    correct aug charges
   LPAW   =        T    paw PP
   EAUG   =  758.780
   DEXC   =    0.000
   RMAX   =    2.045    core radius for proj-oper
   RAUG   =    1.300    factor for augmentation sphere
   RDEP   =    2.025    radius for radial grids
   RDEPT  =    1.557    core radius for aug-charge

   Atomic configuration
    5 entries
     n  l   j            E        occ.
     1  0  0.50     -1259.6230   2.0000
     2  0  0.50       -79.8442   2.0000
     2  1  1.50       -46.6121   6.0000
     3  0  0.50        -4.7055   2.0000
     3  2  1.50        -1.3606   0.0000
   Description
     l       E           TYP  RCUT    TYP  RCUT
     1    -46.6121073     23  1.600
     1      2.7211652     23  1.600
     0     -4.7054661     23  2.000
     0     61.2262170     23  2.000
     2     -1.3605826     23  2.000
  local pseudopotential read in
  partial core-charges read in
  partial kinetic energy density read in
  atomic valenz-charges read in
  non local Contribution for L=           1  read in
    real space projection operators read in
  non local Contribution for L=           1  read in
    real space projection operators read in
  non local Contribution for L=           0  read in
    real space projection operators read in
  non local Contribution for L=           0  read in
    real space projection operators read in
  non local Contribution for L=           2  read in
    real space projection operators read in
    PAW grid and wavefunctions read in

   number of l-projection  operators is LMAX  =           5
   number of lm-projection operators is LMMAX =          13

 POTCAR:    PAW_PBE O 08Apr2002
   SHA256 =  818f92134a0a090dccd8ba1447fa70422a3b330e708bb4f08108d8ae51209ddf O/POTCAR
   COPYR  = (c) Copyright 08Apr2002 Georg Kresse
   COPYR  = This file is part of the software VASP. Any use, copying, and all other rights are regul
   COPYR  = If you do not have a valid VASP license, you may not use, copy or distribute this file.
   VRHFIN =O: s2p4
   LEXCH  = PE
   EATOM  =   432.3788 eV,   31.7789 Ry

   TITEL  = PAW_PBE O 08Apr2002
   LULTRA =        F    use ultrasoft PP ?
   IUNSCR =        1    unscreen: 0-lin 1-nonlin 2-no
   RPACOR =    1.200    partial core radius
   POMASS =   16.000; ZVAL   =    6.000    mass and valenz
   RCORE  =    1.520    outmost cutoff radius
   RWIGS  =    1.550; RWIGS  =    0.820    wigner-seitz radius (au A)
   ENMAX  =  400.000; ENMIN  =  300.000 eV
   ICORE  =        2    local potential
   LCOR   =        T    correct aug charges
   LPAW   =        T    paw PP
   EAUG   =  605.392
   DEXC   =    0.000
   RMAX   =    1.553    core radius for proj-oper
   RAUG   =    1.300    factor for augmentation sphere
   RDEP   =    1.550    radius for radial grids
   RDEPT  =    1.329    core radius for aug-charge

   Atomic configuration
    4 entries
     n  l   j            E        occ.
     1  0  0.50      -514.6923   2.0000
     2  0  0.50       -23.9615   2.0000
     2  1  0.50        -9.0305   4.0000
     3  2  1.50        -9.5241   0.0000
   Description
     l       E           TYP  RCUT    TYP  RCUT
     0    -23.9615318     23  1.200
     0     -9.5240782     23  1.200
     1     -9.0304911     23  1.520
     1      8.1634956     23  1.520
     2     -9.5240782      7  1.500
  local pseudopotential read in
  partial core-charges read in
  partial kinetic energy density read in
  kinetic energy density of atom read in
  atomic valenz-charges read in
  non local Contribution for L=           0  read in
    real space projection operators read in
  non local Contribution for L=           0  read in
    real space projection operators read in
  non local Contribution for L=           1  read in
    real space projection operators read in
  non local Contribution for L=           1  read in
    real space projection operators read in
    PAW grid and wavefunctions read in

   number of l-projection  operators is LMAX  =           4
   number of lm-projection operators is LMMAX =           8

 -----------------------------------------------------------------------------
|                                                                             |
|               ----> ADVICE to this user running VASP <----                  |
|                                                                             |
|     You have a (more or less) 'large supercell' and for larger cells it     |
|     might be more efficient to use real-space projection operators.         |
|     Therefore, try LREAL= Auto in the INCAR file.                           |
|     Mind: For very accurate calculation, you might also keep the            |
|     reciprocal projection scheme (i.e. LREAL=.FALSE.).                      |
|                                                                             |
 -----------------------------------------------------------------------------

 -----------------------------------------------------------------------------
|                                                                             |
|               ----> ADVICE to this user running VASP <----                  |
|                                                                             |
|     You enforced a specific xc type in the INCAR file but a different       |
|     type was found in the POTCAR file.                                      |
|     I HOPE YOU KNOW WHAT YOU ARE DOING!                                     |
|                                                                             |
 -----------------------------------------------------------------------------

  PAW_PBE Mg_pv 13Apr2007               :
 energy of atom  1       EATOM=-1056.7344
 kinetic energy error for atom=    0.0221 (will be added to EATOM!!)
  PAW_PBE O 08Apr2002                   :
 energy of atom  2       EATOM= -432.3788
 kinetic energy error for atom=    0.0168 (will be added to EATOM!!)


 POSCAR: Mg  O
  positions in direct lattice
  No initial velocities read in
 exchange correlation table for  LEXCH =       43
   RHO(1)=    0.500       N(1)  =     2000
   RHO(2)=  100.500       N(2)  =     4000



--------------------------------------------------------------------------------------------------------


 ion  position               nearest neighbor table
   1  0.000  0.750  0.352-  33 2.11  35 2.11  36 2.11  43 2.11  52 2.11
   2  0.250  0.000  0.352-  34 2.11  35 2.11  36 2.11  44 2.11  51 2.11
   3  0.000  0.000  0.451-  35 2.11  34 2.11  33 2.11  41 2.11  50 2.11  39 2.12
   4  0.250  0.750  0.451-  36 2.11  34 2.11  33 2.11  42 2.11  49 2.11  40 2.12
   5  0.000  0.750  0.550-  47 2.11  40 2.11  56 2.11  39 2.11  33 2.12  37 2.15
   6  0.250  0.000  0.550-  55 2.11  48 2.11  40 2.11  39 2.11  34 2.12  38 2.15
   7  0.000  0.000  0.649-  37 2.11  38 2.11  45 2.11  54 2.11  39 2.11
   8  0.250  0.750  0.649-  40 2.11  38 2.11  37 2.11  46 2.11  53 2.11
   9  0.000  0.250  0.352-  41 2.11  35 2.11  43 2.11  44 2.11  60 2.11
  10  0.250  0.500  0.352-  42 2.11  36 2.11  43 2.11  44 2.11  59 2.11
  11  0.000  0.500  0.451-  43 2.11  41 2.11  42 2.11  33 2.11  58 2.11  47 2.12
  12  0.250  0.250  0.451-  44 2.11  41 2.11  42 2.11  34 2.11  57 2.11  48 2.12
  13  0.000  0.250  0.550-  47 2.11  48 2.11  64 2.11  39 2.11  41 2.12  45 2.15
  14  0.250  0.500  0.550-  63 2.11  48 2.11  40 2.11  47 2.11  42 2.13  46 2.15
  15  0.000  0.500  0.649-  46 2.10  62 2.10  47 2.11  45 2.11  37 2.11
  16  0.250  0.250  0.649-  48 2.11  45 2.11  38 2.11  46 2.11  61 2.11
  17  0.500  0.750  0.352-  49 2.11  36 2.11  51 2.11  52 2.11  59 2.11
  18  0.750  0.000  0.352-  50 2.11  35 2.11  51 2.11  52 2.11  60 2.11
  19  0.500  0.000  0.451-  51 2.11  49 2.11  50 2.11  34 2.11  57 2.11  55 2.12
  20  0.750  0.750  0.451-  52 2.11  49 2.11  50 2.11  33 2.11  58 2.11  56 2.12
  21  0.500  0.750  0.550-  63 2.11  56 2.11  40 2.11  55 2.11  49 2.13  53 2.15
  22  0.750  0.000  0.550-  55 2.11  56 2.11  64 2.11  39 2.11  50 2.12  54 2.15
  23  0.500  0.000  0.649-  53 2.10  61 2.10  55 2.11  38 2.11  54 2.11
  24  0.750  0.750  0.649-  56 2.11  54 2.11  37 2.11  53 2.11  62 2.11
  25  0.500  0.250  0.352-  57 2.11  51 2.11  44 2.11  59 2.11  60 2.11
  26  0.750  0.500  0.352-  58 2.11  52 2.11  43 2.11  59 2.11  60 2.11
  27  0.500  0.500  0.451-  59 2.11  49 2.11  57 2.11  58 2.11  42 2.11  63 2.13
  28  0.750  0.250  0.451-  60 2.11  50 2.11  57 2.11  58 2.11  41 2.11  64 2.12
  29  0.500  0.250  0.550-  63 2.11  48 2.11  64 2.11  55 2.11  57 2.13  61 2.15
  30  0.750  0.500  0.550-  63 2.11  56 2.11  64 2.11  47 2.11  58 2.13  62 2.15
  31  0.500  0.500  0.651-  46 2.12  53 2.12  61 2.12  62 2.12  63 2.14
  32  0.750  0.250  0.649-  64 2.11  54 2.11  45 2.11  62 2.11  61 2.11
  33  0.000  0.750  0.451-   1 2.11   3 2.11   4 2.11  11 2.11  20 2.11   5 2.12
  34  0.250  0.000  0.451-   2 2.11   3 2.11   4 2.11  12 2.11  19 2.11   6 2.12
  35  0.000  0.000  0.352-   3 2.11   2 2.11   1 2.11   9 2.11  18 2.11
  36  0.250  0.750  0.352-   4 2.11   2 2.11   1 2.11  10 2.11  17 2.11
  37  0.000  0.750  0.651-   7 2.11   8 2.11  24 2.11  15 2.11   5 2.15
  38  0.250  0.000  0.651-   7 2.11   8 2.11  16 2.11  23 2.11   6 2.15
  39  0.000  0.000  0.550-   7 2.11   6 2.11   5 2.11  13 2.11  22 2.11   3 2.12
  40  0.250  0.750  0.550-   8 2.11   6 2.11   5 2.11  14 2.11  21 2.11   4 2.12
  41  0.000  0.250  0.451-   9 2.11   3 2.11  11 2.11  12 2.11  28 2.11  13 2.12
  42  0.250  0.500  0.451-  10 2.11   4 2.11  11 2.11  12 2.11  27 2.11  14 2.13
  43  0.000  0.500  0.352-  11 2.11   9 2.11  10 2.11   1 2.11  26 2.11
  44  0.250  0.250  0.352-  12 2.11   9 2.11  10 2.11   2 2.11  25 2.11
  45  0.000  0.250  0.651-   7 2.11  16 2.11  32 2.11  15 2.11  13 2.15
  46  0.249  0.500  0.651-  15 2.10   8 2.11  16 2.11  31 2.12  14 2.15
  47  0.000  0.500  0.550-  15 2.11  13 2.11   5 2.11  14 2.11  30 2.11  11 2.12
  48  0.250  0.250  0.550-  16 2.11  13 2.11   6 2.11  14 2.11  29 2.11  12 2.12
  49  0.500  0.750  0.451-  17 2.11   4 2.11  19 2.11  20 2.11  27 2.11  21 2.13
  50  0.750  0.000  0.451-  18 2.11   3 2.11  19 2.11  20 2.11  28 2.11  22 2.12
  51  0.500  0.000  0.352-  19 2.11  17 2.11  18 2.11   2 2.11  25 2.11
  52  0.750  0.750  0.352-  20 2.11  17 2.11  18 2.11   1 2.11  26 2.11
  53  0.500  0.751  0.651-  23 2.10   8 2.11  24 2.11  31 2.12  21 2.15
  54  0.750  0.000  0.651-   7 2.11  24 2.11  32 2.11  23 2.11  22 2.15
  55  0.500  0.000  0.550-  23 2.11  22 2.11   6 2.11  21 2.11  29 2.11  19 2.12
  56  0.750  0.750  0.550-  24 2.11  22 2.11   5 2.11  30 2.11  21 2.11  20 2.12
  57  0.500  0.250  0.451-  25 2.11  19 2.11  12 2.11  27 2.11  28 2.11  29 2.13
  58  0.750  0.500  0.451-  26 2.11  20 2.11  11 2.11  27 2.11  28 2.11  30 2.13
  59  0.500  0.500  0.352-  27 2.11  17 2.11  25 2.11  26 2.11  10 2.11
  60  0.750  0.250  0.352-  28 2.11  18 2.11  25 2.11  26 2.11   9 2.11
  61  0.500  0.249  0.651-  23 2.10  16 2.11  32 2.11  31 2.12  29 2.15
  62  0.751  0.500  0.651-  15 2.10  24 2.11  32 2.11  31 2.12  30 2.15
  63  0.500  0.500  0.550-  14 2.11  21 2.11  29 2.11  30 2.11  27 2.13  31 2.14
  64  0.750  0.250  0.550-  32 2.11  22 2.11  13 2.11  30 2.11  29 2.11  28 2.12

  LATTYP: Found a simple tetragonal cell.
 ALAT       =     8.4409846542
 C/A-ratio  =     2.5270438657

  Lattice vectors:

 A1 = (   8.4409846542,   0.0000000000,   0.0000000000)
 A2 = (   0.0000000000,   8.4409846542,   0.0000000000)
 A3 = (   0.0000000000,   0.0000000000,  21.3307384906)


Analysis of symmetry for initial positions (statically):
=====================================================================
 Subroutine PRICEL returns:
 Original cell was already a primitive cell.


 Routine SETGRP: Setting up the symmetry group for a
 simple tetragonal supercell.


 Subroutine GETGRP returns: Found  8 space group operations
 (whereof  8 operations were pure point group operations)
 out of a pool of 16 trial point group operations.


The static configuration has the point symmetry C_4v.


Analysis of symmetry for dynamics (positions and initial velocities):
=====================================================================
 Subroutine PRICEL returns:
 Original cell was already a primitive cell.


 Routine SETGRP: Setting up the symmetry group for a
 simple tetragonal supercell.


 Subroutine GETGRP returns: Found  8 space group operations
 (whereof  8 operations were pure point group operations)
 out of a pool of 16 trial point group operations.


The dynamic configuration has the point symmetry C_4v.


Analysis of constrained symmetry for selective dynamics:
=====================================================================
 Subroutine PRICEL returns:
 Original cell was already a primitive cell.


 Routine SETGRP: Setting up the symmetry group for a
 simple tetragonal supercell.


 Subroutine GETGRP returns: Found  8 space group operations
 (whereof  8 operations were pure point group operations)
 out of a pool of 16 trial point group operations.


The constrained configuration has the point symmetry C_4v.


 Subroutine INISYM returns: Found  8 space group operations
 (whereof  8 operations are pure point group operations),
 and found     1 'primitive' translations


----------------------------------------------------------------------------------------

                                     Primitive cell

  volume of cell :    1519.8199

  direct lattice vectors                    reciprocal lattice vectors
     8.440984654  0.000000000  0.000000000     0.118469591  0.000000000  0.000000000
     0.000000000  8.440984654  0.000000000     0.000000000  0.118469591  0.000000000
     0.000000000  0.000000000 21.330738491     0.000000000  0.000000000  0.046880702

  length of vectors
     8.440984654  8.440984654 21.330738491     0.118469591  0.118469591  0.046880702

  position of ions in fractional coordinates (direct lattice)
     0.000000000  0.750000000  0.351605267
     0.250000000  0.000000000  0.351605267
     0.000000000  0.000000000  0.450535089
     0.250000000  0.750000000  0.450535089
     0.000000000  0.749939268  0.550083239
     0.250060732  0.000000000  0.550083239
     0.000000000  0.000000000  0.648745309
     0.249858327  0.750141673  0.648569547
     0.000000000  0.250000000  0.351605267
     0.250000000  0.500000000  0.351605267
     0.000000000  0.500000000  0.450535089
     0.250000000  0.250000000  0.450535089
     0.000000000  0.250060732  0.550083239
     0.250378379  0.500000000  0.550219524
     0.000000000  0.500000000  0.648615280
     0.249858327  0.249858327  0.648569547
     0.500000000  0.750000000  0.351605267
     0.750000000  0.000000000  0.351605267
     0.500000000  0.000000000  0.450535089
     0.750000000  0.750000000  0.450535089
     0.500000000  0.749621621  0.550219524
     0.749939268  0.000000000  0.550083239
     0.500000000  0.000000000  0.648615280
     0.750141673  0.750141673  0.648569547
     0.500000000  0.250000000  0.351605267
     0.750000000  0.500000000  0.351605267
     0.500000000  0.500000000  0.450535089
     0.750000000  0.250000000  0.450535089
     0.500000000  0.250378379  0.550219524
     0.749621621  0.500000000  0.550219524
     0.500000000  0.500000000  0.650616960
     0.750141673  0.249858327  0.648569547
     0.000000000  0.750000000  0.450535089
     0.250000000  0.000000000  0.450535089
     0.000000000  0.000000000  0.351605267
     0.250000000  0.750000000  0.351605267
     0.000000000  0.750218533  0.650979255
     0.249781467  0.000000000  0.650979255
     0.000000000  0.000000000  0.549809890
     0.249945770  0.750054230  0.549859113
     0.000000000  0.250000000  0.450535089
     0.250000000  0.500000000  0.450535089
     0.000000000  0.500000000  0.351605267
     0.250000000  0.250000000  0.351605267
     0.000000000  0.249781467  0.650979255
     0.248822710  0.500000000  0.650882872
     0.000000000  0.500000000  0.549762666
     0.249945770  0.249945770  0.549859113
     0.500000000  0.750000000  0.450535089
     0.750000000  0.000000000  0.450535089
     0.500000000  0.000000000  0.351605267
     0.750000000  0.750000000  0.351605267
     0.500000000  0.751177290  0.650882872
     0.750218533  0.000000000  0.650979255
     0.500000000  0.000000000  0.549762666
     0.750054230  0.750054230  0.549859113
     0.500000000  0.250000000  0.450535089
     0.750000000  0.500000000  0.450535089
     0.500000000  0.500000000  0.351605267
     0.750000000  0.250000000  0.351605267
     0.500000000  0.248822710  0.650882872
     0.751177290  0.500000000  0.650882872
     0.500000000  0.500000000  0.550231357
     0.750054230  0.249945770  0.549859113

  ion indices of the primitive-cell ions
   primitive index   ion index
                 1           1
                 2           2
                 3           3
                 4           4
                 5           5
                 6           6
                 7           7
                 8           8
                 9           9
                10          10
                11          11
                12          12
                13          13
                14          14
                15          15
                16          16
                17          17
                18          18
                19          19
                20          20
                21          21
                22          22
                23          23
                24          24
                25          25
                26          26
                27          27
                28          28
                29          29
                30          30
                31          31
                32          32
                33          33
                34          34
                35          35
                36          36
                37          37
                38          38
                39          39
                40          40
                41          41
                42          42
                43          43
                44          44
                45          45
                46          46
                47          47
                48          48
                49          49
                50          50
                51          51
                52          52
                53          53
                54          54
                55          55
                56          56
                57          57
                58          58
                59          59
                60          60
                61          61
                62          62
                63          63
                64          64

----------------------------------------------------------------------------------------



 KPOINTS: pymatgen v2020.8.13 with grid density =

Automatic generation of k-mesh.
 Grid dimensions read from file:
 generate k-points for:    2    2    1

 Generating k-lattice:

  Cartesian coordinates                     Fractional coordinates (reciprocal lattice)
     0.059234796  0.000000000  0.000000000     0.500000000  0.000000000  0.000000000
     0.000000000  0.059234796  0.000000000     0.000000000  0.500000000  0.000000000
     0.000000000  0.000000000  0.046880702     0.000000000  0.000000000  1.000000000

  Length of vectors
     0.059234796  0.059234796  0.046880702

  Shift w.r.t. Gamma in fractional coordinates (k-lattice)
     0.000000000  0.000000000  0.000000000


 Subroutine IBZKPT returns following result:
 ===========================================

 Found      3 irreducible k-points:

 Following reciprocal coordinates:
            Coordinates               Weight
  0.000000  0.000000  0.000000      1.000000
  0.500000  0.000000  0.000000      2.000000
  0.500000  0.500000  0.000000      1.000000

 Following cartesian coordinates:
            Coordinates               Weight
  0.000000  0.000000  0.000000      1.000000
  0.059235  0.000000  0.000000      2.000000
  0.059235  0.059235  0.000000      1.000000



--------------------------------------------------------------------------------------------------------




 Dimension of arrays:
   k-points           NKPTS =      3   k-points in BZ     NKDIM =      3   number of bands    NBANDS=    304
   number of dos      NEDOS =    301   number of ions     NIONS =     64
   non local maximal  LDIM  =      5   non local SUM 2l+1 LMDIM =     13
   total plane-waves  NPLWV = 882000
   max r-space proj   IRMAX =      1   max aug-charges    IRDMAX=  11635
   dimension x,y,z NGX =    70 NGY =   70 NGZ =  180
   dimension x,y,z NGXF=   140 NGYF=  140 NGZF=  360
   support grid    NGXF=   140 NGYF=  140 NGZF=  360
   ions per type =              32  32
   NGX,Y,Z   is equivalent  to a cutoff of  13.79, 13.79, 14.03 a.u.
   NGXF,Y,Z  is equivalent  to a cutoff of  27.57, 27.57, 28.06 a.u.

 SYSTEM =  MgO-rocksalt
 POSCAR =  Mg  O

 Startparameter for this run:
   NWRITE =      2    write-flag & timer
   PREC   = accura    normal or accurate (medium, high low for compatibility)
   ISTART =      0    job   : 0-new  1-cont  2-samecut
   ICHARG =      2    charge: 1-file 2-atom 10-const
   ISPIN  =      1    spin polarized calculation?
   LNONCOLLINEAR =      F non collinear calculations
   LSORBIT =      F    spin-orbit coupling
   INIWAV =      1    electr: 0-lowe 1-rand  2-diag
   LASPH  =      T    aspherical Exc in radial PAW
 Electronic Relaxation 1
   ENCUT  =  600.0 eV  44.10 Ry    6.64 a.u.  16.86 16.86 42.60*2*pi/ulx,y,z
   ENINI  =  600.0     initial cutoff
   ENAUG  =  758.8 eV  augmentation charge cutoff
   NELM   =    200;   NELMIN=  8; NELMDL= -5     # of ELM steps
   EDIFF  = 0.1E-04   stopping-criterion for ELM
   LREAL  =      F    real-space projection
   NLSPLINE    = F    spline interpolate recip. space projectors
   LCOMPAT=      F    compatible to vasp.4.4
   GGA_COMPAT  = T    GGA compatible to vasp.4.4-vasp.4.6
   LMAXPAW     = -100 max onsite density
   LMAXMIX     =    2 max onsite mixed and CHGCAR
   VOSKOWN=      0    Vosko Wilk Nusair interpolation
   ROPT   =    0.00000   0.00000
 Ionic relaxation
   EDIFFG = 0.1E-03   stopping-criterion for IOM
   NSW    =      0    number of steps for IOM
   NBLOCK =      1;   KBLOCK =      1    inner block; outer block
   IBRION =     -1    ionic relax: 0-MD 1-quasi-New 2-CG
   NFREE  =      0    steps in history (QN), initial steepest desc. (CG)
   ISIF   =      2    stress and relaxation
   IWAVPR =     10    prediction:  0-non 1-charg 2-wave 3-comb
   ISYM   =      2    0-nonsym 1-usesym 2-fastsym
   LCORR  =      T    Harris-Foulkes like correction to forces

   POTIM  = 0.5000    time-step for ionic-motion
   TEIN   =    0.0    initial temperature
   TEBEG  =    0.0;   TEEND  =   0.0 temperature during run
   SMASS  =  -3.00    Nose mass-parameter (am)
   estimated Nose-frequenzy (Omega)   =  0.10E-29 period in steps = 0.13E+47 mass=  -0.163E-26a.u.
   SCALEE = 1.0000    scale energy and forces
   NPACO  =    256;   APACO  = 10.0  distance and # of slots for P.C.
   PSTRESS=    0.0 pullay stress

  Mass of Ions in am
   POMASS =  24.30 16.00
  Ionic Valenz
   ZVAL   =   8.00  6.00
  Atomic Wigner-Seitz radii
   RWIGS  =  -1.00 -1.00
  virtual crystal weights
   VCA    =   1.00  1.00
   NELECT =     448.0000    total number of electrons
   NUPDOWN=      -1.0000    fix difference up-down

 DOS related values:
   EMIN   =  10.00;   EMAX   =-10.00  energy-range for DOS
   EFERMI =   0.00
   ISMEAR =     0;   SIGMA  =   0.05  broadening in eV -4-tet -1-fermi 0-gaus

 Electronic relaxation 2 (details)
   IALGO  =     58    algorithm
   LDIAG  =      T    sub-space diagonalisation (order eigenvalues)
   LSUBROT=      F    optimize rotation matrix (better conditioning)
   TURBO    =      0    0=normal 1=particle mesh
   IRESTART =      0    0=no restart 2=restart with 2 vectors
   NREBOOT  =      0    no. of reboots
   NMIN     =      0    reboot dimension
   EREF     =   0.00    reference energy to select bands
   IMIX   =      4    mixing-type and parameters
     AMIX     =   0.40;   BMIX     =  1.00
     AMIX_MAG =   1.60;   BMIX_MAG =  1.00
     AMIN     =   0.10
     WC   =   100.;   INIMIX=   1;  MIXPRE=   1;  MAXMIX= -45

 Intra band minimization:
   WEIMIN = 0.0000     energy-eigenvalue tresh-hold
   EBREAK =  0.82E-08  absolut break condition
   DEPER  =   0.30     relativ break condition

   TIME   =   0.40     timestep for ELM

  volume/ion in A,a.u.               =      23.75       160.25
  Fermi-wavevector in a.u.,A,eV,Ry     =   1.089524  2.058902 16.150966  1.187063
  Thomas-Fermi vector in A             =   2.225729

 Write flags
   LWAVE        =      F    write WAVECAR
   LDOWNSAMPLE  =      F    k-point downsampling of WAVECAR
   LCHARG       =      F    write CHGCAR
   LVTOT        =      F    write LOCPOT, total local potential
   LVHAR        =      F    write LOCPOT, Hartree potential only
   LELF         =      F    write electronic localiz. function (ELF)
   LORBIT       =      0    0 simple, 1 ext, 2 COOP (PROOUT), +10 PAW based schemes


 Dipole corrections
   LMONO  =      F    monopole corrections only (constant potential shift)
   LDIPOL =      T    correct potential (dipole corrections)
   IDIPOL =      3    1-x, 2-y, 3-z, 4-all directions
   EPSILON=  1.0000000 bulk dielectric constant

 Exchange correlation treatment:
   GGA     =    MK    GGA type
   LEXCH   =    43    internal setting for exchange type
   LIBXC   =     F    Libxc
   VOSKOWN =     0    Vosko Wilk Nusair interpolation
   LHFCALC =     F    Hartree Fock is set to
   LHFONE  =     F    Hartree Fock one center treatment
   AEXX    =    0.0000 exact exchange contribution

 vdW DFT:
   LUSE_VDW   =     T    switch on vdW DFT
   Zab_VDW    =******    correlation parameter
   PARAM1     =0.1234
   PARAM2     =0.7114
   PARAM3     =0.0000
   -- rVV10 --
   BPARAM     = 6.3000
   CPARAM     = 0.0093

 Linear response parameters
   LEPSILON=     F    determine dielectric tensor
   LRPA    =     F    only Hartree local field effects (RPA)
   LNABLA  =     F    use nabla operator in PAW spheres
   LVEL    =     F    velocity operator in full k-point grid
   CSHIFT  =0.1000    complex shift for real part using Kramers Kronig
   OMEGAMAX=  -1.0    maximum frequency
   DEG_THRESHOLD= 0.2000000E-02 threshold for treating states as degnerate
   RTIME   =   -0.100 relaxation time in fs
  (WPLASMAI=    0.000 imaginary part of plasma frequency in eV, 0.658/RTIME)
   DFIELD  = 0.0000000 0.0000000 0.0000000 field for delta impulse in time

  Optional k-point grid parameters
   LKPOINTS_OPT  =     F    use optional k-point grid
   KPOINTS_OPT_MODE=     1    mode for optional k-point grid

 Orbital magnetization related:
   ORBITALMAG=     F  switch on orbital magnetization
   LCHIMAG   =     F  perturbation theory with respect to B field
   DQ        =  0.001000  dq finite difference perturbation B field
   LLRAUG    =     F  two centre corrections for induced B field



--------------------------------------------------------------------------------------------------------


 Static calculation
 charge density and potential will be updated during run
 non-spin polarized calculation
 Conjugate gradient for all bands (Freysoldt, et al. PRB 79, 241103 (2009))
 preconditioned conjugated gradient
 perform sub-space diagonalisation
    before iterative eigenvector-optimisation
 modified Broyden-mixing scheme, WC =      100.0
 initial mixing is a Kerker type mixing with AMIX =  0.4000 and BMIX =      1.0000
 Hartree-type preconditioning will be used
 using additional bands           80
 reciprocal scheme for non local part
 use partial core corrections
 no Harris-corrections to forces
 use gradient corrections
 use of overlap-Matrix (Vanderbilt PP)
 Gauss-broadening in eV      SIGMA  =   0.05


--------------------------------------------------------------------------------------------------------


  energy-cutoff  :      600.00
  volume of cell :     1519.82
      direct lattice vectors                 reciprocal lattice vectors
     8.440984654  0.000000000  0.000000000     0.118469591  0.000000000  0.000000000
     0.000000000  8.440984654  0.000000000     0.000000000  0.118469591  0.000000000
     0.000000000  0.000000000 21.330738491     0.000000000  0.000000000  0.046880702

  length of vectors
     8.440984654  8.440984654 21.330738491     0.118469591  0.118469591  0.046880702



 k-points in units of 2pi/SCALE and weight: pymatgen v2020.8.13 with grid density =
   0.00000000  0.00000000  0.00000000       0.250
   0.05923480  0.00000000  0.00000000       0.500
   0.05923480  0.05923480  0.00000000       0.250

 k-points in reciprocal lattice and weights: pymatgen v2020.8.13 with grid density =
   0.00000000  0.00000000  0.00000000       0.250
   0.50000000  0.00000000  0.00000000       0.500
   0.50000000  0.50000000  0.00000000       0.250

 position of ions in fractional coordinates (direct lattice)
   0.00000000  0.75000000  0.35160527
   0.25000000  0.00000000  0.35160527
   0.00000000  0.00000000  0.45053509
   0.25000000  0.75000000  0.45053509
   0.00000000  0.74993927  0.55008324
   0.25006073  0.00000000  0.55008324
   0.00000000  0.00000000  0.64874531
   0.24985833  0.75014167  0.64856955
   0.00000000  0.25000000  0.35160527
   0.25000000  0.50000000  0.35160527
   0.00000000  0.50000000  0.45053509
   0.25000000  0.25000000  0.45053509
   0.00000000  0.25006073  0.55008324
   0.25037838  0.50000000  0.55021952
   0.00000000  0.50000000  0.64861528
   0.24985833  0.24985833  0.64856955
   0.50000000  0.75000000  0.35160527
   0.75000000  0.00000000  0.35160527
   0.50000000  0.00000000  0.45053509
   0.75000000  0.75000000  0.45053509
   0.50000000  0.74962162  0.55021952
   0.74993927  0.00000000  0.55008324
   0.50000000  0.00000000  0.64861528
   0.75014167  0.75014167  0.64856955
   0.50000000  0.25000000  0.35160527
   0.75000000  0.50000000  0.35160527
   0.50000000  0.50000000  0.45053509
   0.75000000  0.25000000  0.45053509
   0.50000000  0.25037838  0.55021952
   0.74962162  0.50000000  0.55021952
   0.50000000  0.50000000  0.65061696
   0.75014167  0.24985833  0.64856955
   0.00000000  0.75000000  0.45053509
   0.25000000  0.00000000  0.45053509
   0.00000000  0.00000000  0.35160527
   0.25000000  0.75000000  0.35160527
   0.00000000  0.75021853  0.65097926
   0.24978147  0.00000000  0.65097926
   0.00000000  0.00000000  0.54980989
   0.24994577  0.75005423  0.54985911
   0.00000000  0.25000000  0.45053509
   0.25000000  0.50000000  0.45053509
   0.00000000  0.50000000  0.35160527
   0.25000000  0.25000000  0.35160527
   0.00000000  0.24978147  0.65097926
   0.24882271  0.50000000  0.65088287
   0.00000000  0.50000000  0.54976267
   0.24994577  0.24994577  0.54985911
   0.50000000  0.75000000  0.45053509
   0.75000000  0.00000000  0.45053509
   0.50000000  0.00000000  0.35160527
   0.75000000  0.75000000  0.35160527
   0.50000000  0.75117729  0.65088287
   0.75021853  0.00000000  0.65097926
   0.50000000  0.00000000  0.54976267
   0.75005423  0.75005423  0.54985911
   0.50000000  0.25000000  0.45053509
   0.75000000  0.50000000  0.45053509
   0.50000000  0.50000000  0.35160527
   0.75000000  0.25000000  0.35160527
   0.50000000  0.24882271  0.65088287
   0.75117729  0.50000000  0.65088287
   0.50000000  0.50000000  0.55023136
   0.75005423  0.24994577  0.54985911

 position of ions in cartesian coordinates  (Angst):
   0.00000000  6.33073849  7.50000000
   2.11024616  0.00000000  7.50000000
   0.00000000  0.00000000  9.61024616
   2.11024616  6.33073849  9.61024616
   0.00000000  6.33022585 11.73368172
   2.11075880  0.00000000 11.73368172
   0.00000000  0.00000000 13.83821654
   2.10905031  6.33193435 13.83446740
   0.00000000  2.11024616  7.50000000
   2.11024616  4.22049233  7.50000000
   0.00000000  4.22049233  9.61024616
   2.11024616  2.11024616  9.61024616
   0.00000000  2.11075880 11.73368172
   2.11344006  4.22049233 11.73658877
   0.00000000  4.22049233 13.83544293
   2.10905031  2.10905031 13.83446740
   4.22049233  6.33073849  7.50000000
   6.33073849  0.00000000  7.50000000
   4.22049233  0.00000000  9.61024616
   6.33073849  6.33073849  9.61024616
   4.22049233  6.32754460 11.73658877
   6.33022585  0.00000000 11.73368172
   4.22049233  0.00000000 13.83544293
   6.33193435  6.33193435 13.83446740
   4.22049233  2.11024616  7.50000000
   6.33073849  4.22049233  7.50000000
   4.22049233  4.22049233  9.61024616
   6.33073849  2.11024616  9.61024616
   4.22049233  2.11344006 11.73658877
   6.32754460  4.22049233 11.73658877
   4.22049233  4.22049233 13.87814023
   6.33193435  2.10905031 13.83446740
   0.00000000  6.33073849  9.61024616
   2.11024616  0.00000000  9.61024616
   0.00000000  0.00000000  7.50000000
   2.11024616  6.33073849  7.50000000
   0.00000000  6.33258312 13.88586825
   2.10840153  0.00000000 13.88586825
   0.00000000  0.00000000 11.72785099
   2.10978841  6.33119624 11.72890095
   0.00000000  2.11024616  9.61024616
   2.11024616  4.22049233  9.61024616
   0.00000000  4.22049233  7.50000000
   2.11024616  2.11024616  7.50000000
   0.00000000  2.10840153 13.88586825
   2.10030867  4.22049233 13.88381232
   0.00000000  4.22049233 11.72684365
   2.10978841  2.10978841 11.72890095
   4.22049233  6.33073849  9.61024616
   6.33073849  0.00000000  9.61024616
   4.22049233  0.00000000  7.50000000
   6.33073849  6.33073849  7.50000000
   4.22049233  6.34067598 13.88381232
   6.33258312  0.00000000 13.88586825
   4.22049233  0.00000000 11.72684365
   6.33119624  6.33119624 11.72890095
   4.22049233  2.11024616  9.61024616
   6.33073849  4.22049233  9.61024616
   4.22049233  4.22049233  7.50000000
   6.33073849  2.11024616  7.50000000
   4.22049233  2.10030867 13.88381232
   6.34067598  4.22049233 13.88381232
   4.22049233  4.22049233 11.73684118
   6.33119624  2.10978841 11.72890095



--------------------------------------------------------------------------------------------------------


 k-point   1 :   0.0000 0.0000 0.0000  plane waves:   50745
 k-point   2 :   0.5000 0.0000 0.0000  plane waves:   50798
 k-point   3 :   0.5000 0.5000 0.0000  plane waves:   50752

 maximum and minimum number of plane-waves per node :     25438    25340

 maximum number of plane-waves:     50798
 maximum index in each direction:
   IXMAX=   16   IYMAX=   16   IZMAX=   42
   IXMIN=  -17   IYMIN=  -17   IZMIN=  -42


 parallel 3D FFT for wavefunctions:
    minimum data exchange during FFTs selected (reduces bandwidth)
 parallel 3D FFT for charge:
    minimum data exchange during FFTs selected (reduces bandwidth)


 total amount of memory used by VASP MPI-rank0   114954. kBytes
=======================================================================

   base      :      30000. kBytes
   nonl-proj :      42083. kBytes
   fftplans  :      14615. kBytes
   grid      :      20512. kBytes
   one-center:        259. kBytes
   wavefun   :       7485. kBytes

     INWAV:  cpu time      0.0001: real time      0.0004
 Broyden mixing: mesh for mixing (old mesh)
   NGX = 33   NGY = 33   NGZ = 85
  (NGX  =140   NGY  =140   NGZ  =360)
  gives a total of  92565 points

 initial charge density was supplied:
 charge density of overlapping atoms calculated
 number of electron     448.0000000 magnetization
 keeping initial charge density in first step


--------------------------------------------------------------------------------------------------------


 Maximum index for augmentation-charges          608 (set IRDMAX)


--------------------------------------------------------------------------------------------------------


 First call to EWALD:  gamma=   0.154
 Maximum number of real-space cells 4x 4x 2
 Maximum number of reciprocal cells 2x 2x 5

    FEWALD:  cpu time      0.0014: real time      0.0014


--------------------------------------- Iteration      1(   1)  ---------------------------------------


vdW kernel read from vdw_kernel.bindat
  0.0000  0.2424  0.5071  0.7962  1.1119  1.4567  1.8333  2.2446  2.6937  3.1842
  3.7199  4.3049  4.9438  5.6415  6.4036  7.2358  8.1446  9.1372 10.2212 11.4050
 12.6979 14.1099 15.6519 17.3360 19.1751 21.1837 23.3773 25.7729 28.3892 31.2465
 34.3669 37.7748 41.4965 45.5611 50.0000

    POTLOK:  cpu time      0.4744: real time      0.4785
    SETDIJ:  cpu time      0.0882: real time      0.0884
    TRIAL :  cpu time      3.2131: real time      3.2263
    CORREC:  cpu time      0.0003: real time      0.0003
    --------------------------------------------
      LOOP:  cpu time      3.7796: real time      3.7981

 eigenvalue-minimisations  :  2280
 total energy-change (2. order) : 0.3400049E+04  (-0.3068481E+05)
 number of electron     448.0000000 magnetization
 augmentation part      448.0000000 magnetization

 DIPCOR: dipole corrections for dipol
 direction  3 min pos     1,
 dipolmoment           0.000000      0.000000     -0.000006 electrons x Angstroem
 Tr[quadrupol]     -5963.452449

 energy correction for charged system         0.000000 eV
 dipol+quadrupol energy correction           -0.000000 eV
 added-field ion interaction          0.000003 eV  (added to PSCEN)


 Free energy of the ion-electron system (eV)
  ---------------------------------------------------
  alpha Z        PSCENC =       875.25928826
  Ewald energy   TEWEN  =    140467.92172078
  -Hartree energ DENC   =   -175972.37177747
  -exchange      EXHF   =         0.00000000
  -V(xc)+E(xc)   XCENC  =      1744.47269795
  PAW double counting   =     31883.82553272   -35683.02952655
  entropy T*S    EENTRO =        -0.02935761
  eigenvalues    EBANDS =     -7699.87754496
  atomic energy  EATOM  =     47783.87840219
  ---------------------------------------------------
  free energy    TOTEN  =      3400.04943530 eV

  energy without entropy =     3400.07879291  energy(sigma->0) =     3400.06411410


--------------------------------------------------------------------------------------------------------




--------------------------------------- Iteration      1(   2)  ---------------------------------------


    TRIAL :  cpu time      3.1279: real time      3.1411
    CORREC:  cpu time      0.0001: real time      0.0001
    --------------------------------------------
      LOOP:  cpu time      3.1299: real time      3.1458

 eigenvalue-minimisations  :  2280
 total energy-change (2. order) :-0.3530874E+04  (-0.3517274E+04)
 number of electron     448.0000000 magnetization
 augmentation part      448.0000000 magnetization

 DIPCOR: dipole corrections for dipol
 direction  3 min pos     1,
 dipolmoment           0.000000      0.000000     -0.000006 electrons x Angstroem
 Tr[quadrupol]     -5963.452449

 energy correction for charged system         0.000000 eV
 dipol+quadrupol energy correction           -0.000000 eV
 added-field ion interaction          0.000003 eV  (added to PSCEN)


 Free energy of the ion-electron system (eV)
  ---------------------------------------------------
  alpha Z        PSCENC =       875.25928826
  Ewald energy   TEWEN  =    140467.92172078
  -Hartree energ DENC   =   -175972.37177747
  -exchange      EXHF   =         0.00000000
  -V(xc)+E(xc)   XCENC  =      1744.47269795
  PAW double counting   =     31883.82553272   -35683.02952655
  entropy T*S    EENTRO =        -0.00000000
  eigenvalues    EBANDS =    -11230.78044332
  atomic energy  EATOM  =     47783.87840219
  ---------------------------------------------------
  free energy    TOTEN  =      -130.82410545 eV

  energy without entropy =     -130.82410545  energy(sigma->0) =     -130.82410545


--------------------------------------------------------------------------------------------------------




--------------------------------------- Iteration      1(   3)  ---------------------------------------


    TRIAL :  cpu time      3.8627: real time      3.8776
    CORREC:  cpu time      0.0001: real time      0.0001
    --------------------------------------------
      LOOP:  cpu time      3.8630: real time      3.8779

 eigenvalue-minimisations  :  2584
 total energy-change (2. order) :-0.1959822E+03  (-0.1956780E+03)
 number of electron     448.0000000 magnetization
 augmentation part      448.0000000 magnetization

 DIPCOR: dipole corrections for dipol
 direction  3 min pos     1,
 dipolmoment           0.000000      0.000000     -0.000006 electrons x Angstroem
 Tr[quadrupol]     -5963.452449

 energy correction for charged system         0.000000 eV
 dipol+quadrupol energy correction           -0.000000 eV
 added-field ion interaction          0.000003 eV  (added to PSCEN)


 Free energy of the ion-electron system (eV)
  ---------------------------------------------------
  alpha Z        PSCENC =       875.25928826
  Ewald energy   TEWEN  =    140467.92172078
  -Hartree energ DENC   =   -175972.37177747
  -exchange      EXHF   =         0.00000000
  -V(xc)+E(xc)   XCENC  =      1744.47269795
  PAW double counting   =     31883.82553272   -35683.02952655
  entropy T*S    EENTRO =        -0.00000000
  eigenvalues    EBANDS =    -11426.76259873
  atomic energy  EATOM  =     47783.87840219
  ---------------------------------------------------
  free energy    TOTEN  =      -326.80626086 eV

  energy without entropy =     -326.80626086  energy(sigma->0) =     -326.80626086


--------------------------------------------------------------------------------------------------------




--------------------------------------- Iteration      1(   4)  ---------------------------------------


    TRIAL :  cpu time      2.9166: real time      2.9283
    CORREC:  cpu time      0.0001: real time      0.0001
    --------------------------------------------
      LOOP:  cpu time      2.9169: real time      2.9286

 eigenvalue-minimisations  :  2128
 total energy-change (2. order) :-0.1681513E+01  (-0.1681192E+01)
 number of electron     448.0000000 magnetization
 augmentation part      448.0000000 magnetization

 DIPCOR: dipole corrections for dipol
 direction  3 min pos     1,
 dipolmoment           0.000000      0.000000     -0.000006 electrons x Angstroem
 Tr[quadrupol]     -5963.452449

 energy correction for charged system         0.000000 eV
 dipol+quadrupol energy correction           -0.000000 eV
 added-field ion interaction          0.000003 eV  (added to PSCEN)


 Free energy of the ion-electron system (eV)
  ---------------------------------------------------
  alpha Z        PSCENC =       875.25928826
  Ewald energy   TEWEN  =    140467.92172078
  -Hartree energ DENC   =   -175972.37177747
  -exchange      EXHF   =         0.00000000
  -V(xc)+E(xc)   XCENC  =      1744.47269795
  PAW double counting   =     31883.82553272   -35683.02952655
  entropy T*S    EENTRO =        -0.00000000
  eigenvalues    EBANDS =    -11428.44411221
  atomic energy  EATOM  =     47783.87840219
  ---------------------------------------------------
  free energy    TOTEN  =      -328.48777435 eV

  energy without entropy =     -328.48777435  energy(sigma->0) =     -328.48777435


--------------------------------------------------------------------------------------------------------




--------------------------------------- Iteration      1(   5)  ---------------------------------------


    TRIAL :  cpu time      3.8161: real time      3.8309
    CORREC:  cpu time      0.0001: real time      0.0001
    CHARGE:  cpu time      0.1252: real time      0.1257
    --------------------------------------------
      LOOP:  cpu time      3.9417: real time      3.9569

 eigenvalue-minimisations  :  2584
 total energy-change (2. order) :-0.2337273E-01  (-0.2337242E-01)
 number of electron     447.9999545 magnetization
 augmentation part      158.8543002 magnetization

 DIPCOR: dipole corrections for dipol
 direction  3 min pos     1,
 dipolmoment           0.000000      0.000000     -0.000006 electrons x Angstroem
 Tr[quadrupol]     -5963.452449

 energy correction for charged system         0.000000 eV
 dipol+quadrupol energy correction           -0.000000 eV
 added-field ion interaction          0.000003 eV  (added to PSCEN)


 Free energy of the ion-electron system (eV)
  ---------------------------------------------------
  alpha Z        PSCENC =       875.25928826
  Ewald energy   TEWEN  =    140467.92172078
  -Hartree energ DENC   =   -175972.37177747
  -exchange      EXHF   =         0.00000000
  -V(xc)+E(xc)   XCENC  =      1744.47269795
  PAW double counting   =     31883.82553272   -35683.02952655
  entropy T*S    EENTRO =        -0.00000000
  eigenvalues    EBANDS =    -11428.46748494
  atomic energy  EATOM  =     47783.87840219
  ---------------------------------------------------
  free energy    TOTEN  =      -328.51114707 eV

  energy without entropy =     -328.51114707  energy(sigma->0) =     -328.51114707


--------------------------------------------------------------------------------------------------------




--------------------------------------- Iteration      1(   6)  ---------------------------------------


    POTLOK:  cpu time      0.3127: real time      0.3136
    SETDIJ:  cpu time      0.0860: real time      0.0862
    TRIAL :  cpu time      0.8886: real time      0.8923
    CORREC:  cpu time      0.8130: real time      0.8155
    CHARGE:  cpu time      0.1242: real time      0.1247
    --------------------------------------------
      LOOP:  cpu time      2.2250: real time      2.2328

 eigenvalue-minimisations  :     0
 total energy-change (2. order) : 0.1755401E+03  (-0.9748433E+02)
 number of electron     447.9999551 magnetization
 augmentation part      156.0450727 magnetization

 DIPCOR: dipole corrections for dipol
 direction  3 min pos     1,
 dipolmoment           0.000000      0.000000      0.279896 electrons x Angstroem
 Tr[quadrupol]     -5996.382924

 energy correction for charged system         0.000000 eV
 dipol+quadrupol energy correction           -0.004664 eV
 added-field ion interaction         -0.152896 eV  (added to PSCEN)


 Free energy of the ion-electron system (eV)
  ---------------------------------------------------
  alpha Z        PSCENC =       874.95732185
  Ewald energy   TEWEN  =    140467.92172078
  -Hartree energ DENC   =   -179806.04077915
  -exchange      EXHF   =         0.00000000
  -V(xc)+E(xc)   XCENC  =      1866.79565738
  PAW double counting   =     36102.19360634   -39847.36878120
  entropy T*S    EENTRO =        -0.00000000
  eigenvalues    EBANDS =     -7595.30816924
  atomic energy  EATOM  =     47783.87840219
  ---------------------------------------------------
  free energy    TOTEN  =      -152.97102105 eV

  energy without entropy =     -152.97102105  energy(sigma->0) =     -152.97102105


--------------------------------------------------------------------------------------------------------




--------------------------------------- Iteration      1(   7)  ---------------------------------------


    POTLOK:  cpu time      0.3103: real time      0.3112
    SETDIJ:  cpu time      0.0871: real time      0.0873
    TRIAL :  cpu time      0.8819: real time      0.8855
    CORREC:  cpu time      0.8008: real time      0.8033
    CHARGE:  cpu time      0.1255: real time      0.1260
    --------------------------------------------
      LOOP:  cpu time      2.2060: real time      2.2137

 eigenvalue-minimisations  :     0
 total energy-change (2. order) :-0.9808215E+02  (-0.6775170E+01)
 number of electron     447.9999555 magnetization
 augmentation part      154.1740094 magnetization

 DIPCOR: dipole corrections for dipol
 direction  3 min pos     1,
 dipolmoment           0.000000      0.000000      0.223615 electrons x Angstroem
 Tr[quadrupol]     -6003.580690

 energy correction for charged system         0.000000 eV
 dipol+quadrupol energy correction           -0.002977 eV
 added-field ion interaction         -0.122152 eV  (added to PSCEN)


 Free energy of the ion-electron system (eV)
  ---------------------------------------------------
  alpha Z        PSCENC =       875.07897929
  Ewald energy   TEWEN  =    140467.92172078
  -Hartree energ DENC   =   -177928.66187035
  -exchange      EXHF   =         0.00000000
  -V(xc)+E(xc)   XCENC  =      1798.44642435
  PAW double counting   =     34966.74585681   -38787.48736272
  entropy T*S    EENTRO =        -0.00000000
  eigenvalues    EBANDS =     -9426.97532057
  atomic energy  EATOM  =     47783.87840219
  ---------------------------------------------------
  free energy    TOTEN  =      -251.05317023 eV

  energy without entropy =     -251.05317023  energy(sigma->0) =     -251.05317023


--------------------------------------------------------------------------------------------------------




--------------------------------------- Iteration      1(   8)  ---------------------------------------


    POTLOK:  cpu time      0.3100: real time      0.3109
    SETDIJ:  cpu time      0.0858: real time      0.0860
    TRIAL :  cpu time      0.8738: real time      0.8775
    CORREC:  cpu time      0.7922: real time      0.7946
    CHARGE:  cpu time      0.1252: real time      0.1257
    --------------------------------------------
      LOOP:  cpu time      2.1873: real time      2.1951

 eigenvalue-minimisations  :     0
 total energy-change (2. order) :-0.6791178E+01  (-0.4267228E+01)
 number of electron     447.9999554 magnetization
 augmentation part      154.3239140 magnetization

 DIPCOR: dipole corrections for dipol
 direction  3 min pos     1,
 dipolmoment           0.000000      0.000000      0.152933 electrons x Angstroem
 Tr[quadrupol]     -6002.100702

 energy correction for charged system         0.000000 eV
 dipol+quadrupol energy correction           -0.001392 eV
 added-field ion interaction         -0.083541 eV  (added to PSCEN)


 Free energy of the ion-electron system (eV)
  ---------------------------------------------------
  alpha Z        PSCENC =       875.15017447
  Ewald energy   TEWEN  =    140467.92172078
  -Hartree energ DENC   =   -177826.53862786
  -exchange      EXHF   =         0.00000000
  -V(xc)+E(xc)   XCENC  =      1788.36429342
  PAW double counting   =     34860.78676199   -38610.52632275
  entropy T*S    EENTRO =        -0.00000000
  eigenvalues    EBANDS =     -9596.88075082
  atomic energy  EATOM  =     47783.87840219
  ---------------------------------------------------
  free energy    TOTEN  =      -257.84434858 eV

  energy without entropy =     -257.84434858  energy(sigma->0) =     -257.84434858


--------------------------------------------------------------------------------------------------------




--------------------------------------- Iteration      1(   9)  ---------------------------------------


    POTLOK:  cpu time      0.3148: real time      0.3157
    SETDIJ:  cpu time      0.0859: real time      0.0861
    TRIAL :  cpu time      0.8729: real time      0.8765
    CORREC:  cpu time      0.7969: real time      0.7994
    CHARGE:  cpu time      0.1230: real time      0.1235
    --------------------------------------------
      LOOP:  cpu time      2.1939: real time      2.2016

 eigenvalue-minimisations  :     0
 total energy-change (2. order) :-0.4179609E+01  (-0.1792558E+01)
 number of electron     447.9999555 magnetization
 augmentation part      154.3260211 magnetization

 DIPCOR: dipole corrections for dipol
 direction  3 min pos     1,
 dipolmoment           0.000000      0.000000      0.111786 electrons x Angstroem
 Tr[quadrupol]     -5995.217489

 energy correction for charged system         0.000000 eV
 dipol+quadrupol energy correction           -0.000744 eV
 added-field ion interaction         -0.061064 eV  (added to PSCEN)


 Free energy of the ion-electron system (eV)
  ---------------------------------------------------
  alpha Z        PSCENC =       875.18967532
  Ewald energy   TEWEN  =    140467.92172078
  -Hartree energ DENC   =   -177704.08717829
  -exchange      EXHF   =         0.00000000
  -V(xc)+E(xc)   XCENC  =      1788.06626488
  PAW double counting   =     34791.88319939   -38578.97724644
  entropy T*S    EENTRO =        -0.00000000
  eigenvalues    EBANDS =     -9685.89879530
  atomic energy  EATOM  =     47783.87840219
  ---------------------------------------------------
  free energy    TOTEN  =      -262.02395748 eV

  energy without entropy =     -262.02395748  energy(sigma->0) =     -262.02395748


--------------------------------------------------------------------------------------------------------




--------------------------------------- Iteration      1(  10)  ---------------------------------------


    POTLOK:  cpu time      0.3141: real time      0.3151
    SETDIJ:  cpu time      0.0861: real time      0.0863
    TRIAL :  cpu time      0.8681: real time      0.8718
    CORREC:  cpu time      0.7925: real time      0.7949
    CHARGE:  cpu time      0.1255: real time      0.1260
    --------------------------------------------
      LOOP:  cpu time      2.1868: real time      2.1945

 eigenvalue-minimisations  :     0
 total energy-change (2. order) :-0.1811147E+01  (-0.6235594E+00)
 number of electron     447.9999555 magnetization
 augmentation part      154.2628333 magnetization

 DIPCOR: dipole corrections for dipol
 direction  3 min pos     1,
 dipolmoment           0.000000      0.000000      0.129273 electrons x Angstroem
 Tr[quadrupol]     -5994.409352

 energy correction for charged system         0.000000 eV
 dipol+quadrupol energy correction           -0.000995 eV
 added-field ion interaction         -0.070616 eV  (added to PSCEN)


 Free energy of the ion-electron system (eV)
  ---------------------------------------------------
  alpha Z        PSCENC =       875.19546207
  Ewald energy   TEWEN  =    140467.92172078
  -Hartree energ DENC   =   -177530.85585247
  -exchange      EXHF   =         0.00000000
  -V(xc)+E(xc)   XCENC  =      1786.37291389
  PAW double counting   =     34680.96323265   -38475.77923471
  entropy T*S    EENTRO =        -0.00000000
  eigenvalues    EBANDS =     -9851.53174877
  atomic energy  EATOM  =     47783.87840219
  ---------------------------------------------------
  free energy    TOTEN  =      -263.83510438 eV

  energy without entropy =     -263.83510438  energy(sigma->0) =     -263.83510438


--------------------------------------------------------------------------------------------------------




--------------------------------------- Iteration      1(  11)  ---------------------------------------


    POTLOK:  cpu time      0.3140: real time      0.3149
    SETDIJ:  cpu time      0.0860: real time      0.0862
    TRIAL :  cpu time      0.8660: real time      0.8696
    CORREC:  cpu time      0.7934: real time      0.7959
    CHARGE:  cpu time      0.1220: real time      0.1226
    --------------------------------------------
      LOOP:  cpu time      2.1820: real time      2.1897

 eigenvalue-minimisations  :     0
 total energy-change (2. order) :-0.6251493E+00  (-0.2157255E+00)
 number of electron     447.9999555 magnetization
 augmentation part      154.3515970 magnetization

 DIPCOR: dipole corrections for dipol
 direction  3 min pos     1,
 dipolmoment           0.000000      0.000000      0.141606 electrons x Angstroem
 Tr[quadrupol]     -5995.185445

 energy correction for charged system         0.000000 eV
 dipol+quadrupol energy correction           -0.001194 eV
 added-field ion interaction         -0.077353 eV  (added to PSCEN)


 Free energy of the ion-electron system (eV)
  ---------------------------------------------------
  alpha Z        PSCENC =       875.18862671
  Ewald energy   TEWEN  =    140467.92172078
  -Hartree energ DENC   =   -177469.35970847
  -exchange      EXHF   =         0.00000000
  -V(xc)+E(xc)   XCENC  =      1785.29817658
  PAW double counting   =     34618.43443320   -38404.25775849
  entropy T*S    EENTRO =        -0.00000000
  eigenvalues    EBANDS =     -9921.56414618
  atomic energy  EATOM  =     47783.87840219
  ---------------------------------------------------
  free energy    TOTEN  =      -264.46025369 eV

  energy without entropy =     -264.46025369  energy(sigma->0) =     -264.46025369


--------------------------------------------------------------------------------------------------------




--------------------------------------- Iteration      1(  12)  ---------------------------------------


    POTLOK:  cpu time      0.3159: real time      0.3168
    SETDIJ:  cpu time      0.0863: real time      0.0864
    TRIAL :  cpu time      0.8685: real time      0.8721
    CORREC:  cpu time      0.7905: real time      0.7929
    CHARGE:  cpu time      0.1252: real time      0.1256
    --------------------------------------------
      LOOP:  cpu time      2.1868: real time      2.1944

 eigenvalue-minimisations  :     0
 total energy-change (2. order) :-0.2157105E+00  (-0.7696237E-01)
 number of electron     447.9999554 magnetization
 augmentation part      154.4637862 magnetization

 DIPCOR: dipole corrections for dipol
 direction  3 min pos     1,
 dipolmoment           0.000000      0.000000      0.148525 electrons x Angstroem
 Tr[quadrupol]     -5995.780265

 energy correction for charged system         0.000000 eV
 dipol+quadrupol energy correction           -0.001313 eV
 added-field ion interaction         -0.081133 eV  (added to PSCEN)


 Free energy of the ion-electron system (eV)
  ---------------------------------------------------
  alpha Z        PSCENC =       875.18102083
  Ewald energy   TEWEN  =    140467.92172078
  -Hartree energ DENC   =   -177491.07621615
  -exchange      EXHF   =         0.00000000
  -V(xc)+E(xc)   XCENC  =      1785.55900399
  PAW double counting   =     34606.62406428   -38390.47414166
  entropy T*S    EENTRO =        -0.00000000
  eigenvalues    EBANDS =     -9902.28981840
  atomic energy  EATOM  =     47783.87840219
  ---------------------------------------------------
  free energy    TOTEN  =      -264.67596415 eV

  energy without entropy =     -264.67596415  energy(sigma->0) =     -264.67596415


--------------------------------------------------------------------------------------------------------




--------------------------------------- Iteration      1(  13)  ---------------------------------------


    POTLOK:  cpu time      0.3140: real time      0.3149
    SETDIJ:  cpu time      0.0862: real time      0.0863
    TRIAL :  cpu time      0.8674: real time      0.8711
    CORREC:  cpu time      0.7964: real time      0.7990
    CHARGE:  cpu time      0.1226: real time      0.1231
    --------------------------------------------
      LOOP:  cpu time      2.1872: real time      2.1949

 eigenvalue-minimisations  :     0
 total energy-change (2. order) :-0.7696988E-01  (-0.3590708E-01)
 number of electron     447.9999554 magnetization
 augmentation part      154.5123544 magnetization

 DIPCOR: dipole corrections for dipol
 direction  3 min pos     1,
 dipolmoment           0.000000      0.000000      0.152483 electrons x Angstroem
 Tr[quadrupol]     -5996.136709

 energy correction for charged system         0.000000 eV
 dipol+quadrupol energy correction           -0.001384 eV
 added-field ion interaction         -0.083295 eV  (added to PSCEN)


 Free energy of the ion-electron system (eV)
  ---------------------------------------------------
  alpha Z        PSCENC =       875.17671870
  Ewald energy   TEWEN  =    140467.92172078
  -Hartree energ DENC   =   -177518.10321195
  -exchange      EXHF   =         0.00000000
  -V(xc)+E(xc)   XCENC  =      1785.91190148
  PAW double counting   =     34609.18915373   -38396.08428246
  entropy T*S    EENTRO =        -0.00000000
  eigenvalues    EBANDS =     -9872.64333649
  atomic energy  EATOM  =     47783.87840219
  ---------------------------------------------------
  free energy    TOTEN  =      -264.75293403 eV

  energy without entropy =     -264.75293403  energy(sigma->0) =     -264.75293403


--------------------------------------------------------------------------------------------------------




--------------------------------------- Iteration      1(  14)  ---------------------------------------


    POTLOK:  cpu time      0.3183: real time      0.3192
    SETDIJ:  cpu time      0.0866: real time      0.0868
    TRIAL :  cpu time      0.8657: real time      0.8697
    CORREC:  cpu time      0.7899: real time      0.7923
    CHARGE:  cpu time      0.1251: real time      0.1255
    --------------------------------------------
      LOOP:  cpu time      2.1860: real time      2.1940

 eigenvalue-minimisations  :     0
 total energy-change (2. order) :-0.3593128E-01  (-0.1724975E-01)
 number of electron     447.9999554 magnetization
 augmentation part      154.4997258 magnetization

 DIPCOR: dipole corrections for dipol
 direction  3 min pos     1,
 dipolmoment           0.000000      0.000000      0.156332 electrons x Angstroem
 Tr[quadrupol]     -5996.443882

 energy correction for charged system         0.000000 eV
 dipol+quadrupol energy correction           -0.001455 eV
 added-field ion interaction         -0.085397 eV  (added to PSCEN)


 Free energy of the ion-electron system (eV)
  ---------------------------------------------------
  alpha Z        PSCENC =       875.17420144
  Ewald energy   TEWEN  =    140467.92172078
  -Hartree energ DENC   =   -177532.16360037
  -exchange      EXHF   =         0.00000000
  -V(xc)+E(xc)   XCENC  =      1785.98393063
  PAW double counting   =     34612.83040302   -38401.60463299
  entropy T*S    EENTRO =        -0.00000000
  eigenvalues    EBANDS =     -9856.80929000
  atomic energy  EATOM  =     47783.87840219
  ---------------------------------------------------
  free energy    TOTEN  =      -264.78886531 eV

  energy without entropy =     -264.78886531  energy(sigma->0) =     -264.78886531


--------------------------------------------------------------------------------------------------------




--------------------------------------- Iteration      1(  15)  ---------------------------------------


    POTLOK:  cpu time      0.3178: real time      0.3187
    SETDIJ:  cpu time      0.0866: real time      0.0868
    TRIAL :  cpu time      0.8668: real time      0.8703
    CORREC:  cpu time      0.7932: real time      0.7957
    CHARGE:  cpu time      0.1227: real time      0.1232
    --------------------------------------------
      LOOP:  cpu time      2.1874: real time      2.1950

 eigenvalue-minimisations  :     0
 total energy-change (2. order) :-0.1726404E-01  (-0.7702911E-02)
 number of electron     447.9999554 magnetization
 augmentation part      154.4813531 magnetization

 DIPCOR: dipole corrections for dipol
 direction  3 min pos     1,
 dipolmoment           0.000000      0.000000      0.159466 electrons x Angstroem
 Tr[quadrupol]     -5996.692570

 energy correction for charged system         0.000000 eV
 dipol+quadrupol energy correction           -0.001514 eV
 added-field ion interaction         -0.087110 eV  (added to PSCEN)


 Free energy of the ion-electron system (eV)
  ---------------------------------------------------
  alpha Z        PSCENC =       875.17205221
  Ewald energy   TEWEN  =    140467.92172078
  -Hartree energ DENC   =   -177541.44921778
  -exchange      EXHF   =         0.00000000
  -V(xc)+E(xc)   XCENC  =      1786.01100220
  PAW double counting   =     34617.96334187   -38405.93269301
  entropy T*S    EENTRO =        -0.00000000
  eigenvalues    EBANDS =     -9848.37073779
  atomic energy  EATOM  =     47783.87840219
  ---------------------------------------------------
  free energy    TOTEN  =      -264.80612934 eV

  energy without entropy =     -264.80612934  energy(sigma->0) =     -264.80612934


--------------------------------------------------------------------------------------------------------




--------------------------------------- Iteration      1(  16)  ---------------------------------------


    POTLOK:  cpu time      0.3156: real time      0.3166
    SETDIJ:  cpu time      0.0869: real time      0.0871
    TRIAL :  cpu time      0.8635: real time      0.8671
    CORREC:  cpu time      0.7898: real time      0.7922
    CHARGE:  cpu time      0.1245: real time      0.1250
    --------------------------------------------
      LOOP:  cpu time      2.1809: real time      2.1886

 eigenvalue-minimisations  :     0
 total energy-change (2. order) :-0.7706868E-02  (-0.2984299E-02)
 number of electron     447.9999554 magnetization
 augmentation part      154.4765343 magnetization

 DIPCOR: dipole corrections for dipol
 direction  3 min pos     1,
 dipolmoment           0.000000      0.000000      0.160701 electrons x Angstroem
 Tr[quadrupol]     -5996.818798

 energy correction for charged system         0.000000 eV
 dipol+quadrupol energy correction           -0.001537 eV
 added-field ion interaction         -0.087784 eV  (added to PSCEN)


 Free energy of the ion-electron system (eV)
  ---------------------------------------------------
  alpha Z        PSCENC =       875.17034021
  Ewald energy   TEWEN  =    140467.92172078
  -Hartree energ DENC   =   -177550.70782350
  -exchange      EXHF   =         0.00000000
  -V(xc)+E(xc)   XCENC  =      1786.12322824
  PAW double counting   =     34623.48490369   -38410.55785136
  entropy T*S    EENTRO =        -0.00000000
  eigenvalues    EBANDS =     -9840.12675645
  atomic energy  EATOM  =     47783.87840219
  ---------------------------------------------------
  free energy    TOTEN  =      -264.81383621 eV

  energy without entropy =     -264.81383621  energy(sigma->0) =     -264.81383621


--------------------------------------------------------------------------------------------------------




--------------------------------------- Iteration      1(  17)  ---------------------------------------


    POTLOK:  cpu time      0.3160: real time      0.3170
    SETDIJ:  cpu time      0.0865: real time      0.0867
    TRIAL :  cpu time      0.8648: real time      0.8685
    CORREC:  cpu time      0.7910: real time      0.7935
    CHARGE:  cpu time      0.1251: real time      0.1256
    --------------------------------------------
      LOOP:  cpu time      2.1840: real time      2.1917

 eigenvalue-minimisations  :     0
 total energy-change (2. order) :-0.2982132E-02  (-0.1140235E-02)
 number of electron     447.9999554 magnetization
 augmentation part      154.4767778 magnetization

 DIPCOR: dipole corrections for dipol
 direction  3 min pos     1,
 dipolmoment           0.000000      0.000000      0.160131 electrons x Angstroem
 Tr[quadrupol]     -5996.827211

 energy correction for charged system         0.000000 eV
 dipol+quadrupol energy correction           -0.001527 eV
 added-field ion interaction         -0.087473 eV  (added to PSCEN)


 Free energy of the ion-electron system (eV)
  ---------------------------------------------------
  alpha Z        PSCENC =       875.16988380
  Ewald energy   TEWEN  =    140467.92172078
  -Hartree energ DENC   =   -177554.83982967
  -exchange      EXHF   =         0.00000000
  -V(xc)+E(xc)   XCENC  =      1786.18448105
  PAW double counting   =     34626.42469178   -38413.60202118
  entropy T*S    EENTRO =        -0.00000000
  eigenvalues    EBANDS =     -9835.95414708
  atomic energy  EATOM  =     47783.87840219
  ---------------------------------------------------
  free energy    TOTEN  =      -264.81681834 eV

  energy without entropy =     -264.81681834  energy(sigma->0) =     -264.81681834


--------------------------------------------------------------------------------------------------------




--------------------------------------- Iteration      1(  18)  ---------------------------------------


    POTLOK:  cpu time      0.3178: real time      0.3188
    SETDIJ:  cpu time      0.0863: real time      0.0865
    TRIAL :  cpu time      0.8651: real time      0.8687
    CORREC:  cpu time      0.7885: real time      0.7909
    CHARGE:  cpu time      0.1263: real time      0.1268
    --------------------------------------------
      LOOP:  cpu time      2.1844: real time      2.1921

 eigenvalue-minimisations  :     0
 total energy-change (2. order) :-0.1138484E-02  (-0.4758761E-03)
 number of electron     447.9999554 magnetization
 augmentation part      154.4773685 magnetization

 DIPCOR: dipole corrections for dipol
 direction  3 min pos     1,
 dipolmoment           0.000000      0.000000      0.158905 electrons x Angstroem
 Tr[quadrupol]     -5996.793640

 energy correction for charged system         0.000000 eV
 dipol+quadrupol energy correction           -0.001503 eV
 added-field ion interaction         -0.086803 eV  (added to PSCEN)


 Free energy of the ion-electron system (eV)
  ---------------------------------------------------
  alpha Z        PSCENC =       875.17039067
  Ewald energy   TEWEN  =    140467.92172078
  -Hartree energ DENC   =   -177554.58346878
  -exchange      EXHF   =         0.00000000
  -V(xc)+E(xc)   XCENC  =      1786.19185515
  PAW double counting   =     34628.12092880   -38415.52092648
  entropy T*S    EENTRO =        -0.00000000
  eigenvalues    EBANDS =     -9835.99685915
  atomic energy  EATOM  =     47783.87840219
  ---------------------------------------------------
  free energy    TOTEN  =      -264.81795683 eV

  energy without entropy =     -264.81795683  energy(sigma->0) =     -264.81795683


--------------------------------------------------------------------------------------------------------




--------------------------------------- Iteration      1(  19)  ---------------------------------------


    POTLOK:  cpu time      0.3164: real time      0.3173
    SETDIJ:  cpu time      0.0861: real time      0.0863
    TRIAL :  cpu time      0.8623: real time      0.8660
    CORREC:  cpu time      0.7935: real time      0.7959
    CHARGE:  cpu time      0.1253: real time      0.1257
    --------------------------------------------
      LOOP:  cpu time      2.1841: real time      2.1918

 eigenvalue-minimisations  :     0
 total energy-change (2. order) :-0.4756745E-03  (-0.1901723E-03)
 number of electron     447.9999554 magnetization
 augmentation part      154.4770880 magnetization

 DIPCOR: dipole corrections for dipol
 direction  3 min pos     1,
 dipolmoment           0.000000      0.000000      0.157932 electrons x Angstroem
 Tr[quadrupol]     -5996.755921

 energy correction for charged system         0.000000 eV
 dipol+quadrupol energy correction           -0.001485 eV
 added-field ion interaction         -0.086272 eV  (added to PSCEN)


 Free energy of the ion-electron system (eV)
  ---------------------------------------------------
  alpha Z        PSCENC =       875.17117003
  Ewald energy   TEWEN  =    140467.92172078
  -Hartree energ DENC   =   -177553.21143452
  -exchange      EXHF   =         0.00000000
  -V(xc)+E(xc)   XCENC  =      1786.19927811
  PAW double counting   =     34629.48018347   -38416.83792169
  entropy T*S    EENTRO =        -0.00000000
  eigenvalues    EBANDS =     -9837.41983085
  atomic energy  EATOM  =     47783.87840219
  ---------------------------------------------------
  free energy    TOTEN  =      -264.81843250 eV

  energy without entropy =     -264.81843250  energy(sigma->0) =     -264.81843250


--------------------------------------------------------------------------------------------------------




--------------------------------------- Iteration      1(  20)  ---------------------------------------


    POTLOK:  cpu time      0.3183: real time      0.3192
    SETDIJ:  cpu time      0.0861: real time      0.0863
    TRIAL :  cpu time      0.8621: real time      0.8657
    CORREC:  cpu time      0.7911: real time      0.7936
    CHARGE:  cpu time      0.1253: real time      0.1258
    --------------------------------------------
      LOOP:  cpu time      2.1840: real time      2.1916

 eigenvalue-minimisations  :     0
 total energy-change (2. order) :-0.1903610E-03  (-0.7782789E-04)
 number of electron     447.9999554 magnetization
 augmentation part      154.4766465 magnetization

 DIPCOR: dipole corrections for dipol
 direction  3 min pos     1,
 dipolmoment           0.000000      0.000000      0.157569 electrons x Angstroem
 Tr[quadrupol]     -5996.730102

 energy correction for charged system         0.000000 eV
 dipol+quadrupol energy correction           -0.001478 eV
 added-field ion interaction         -0.086073 eV  (added to PSCEN)


 Free energy of the ion-electron system (eV)
  ---------------------------------------------------
  alpha Z        PSCENC =       875.17164097
  Ewald energy   TEWEN  =    140467.92172078
  -Hartree energ DENC   =   -177551.87935106
  -exchange      EXHF   =         0.00000000
  -V(xc)+E(xc)   XCENC  =      1786.19477085
  PAW double counting   =     34629.41819946   -38416.68674732
  entropy T*S    EENTRO =        -0.00000000
  eigenvalues    EBANDS =     -9838.83725873
  atomic energy  EATOM  =     47783.87840219
  ---------------------------------------------------
  free energy    TOTEN  =      -264.81862286 eV

  energy without entropy =     -264.81862286  energy(sigma->0) =     -264.81862286


--------------------------------------------------------------------------------------------------------




--------------------------------------- Iteration      1(  21)  ---------------------------------------


    POTLOK:  cpu time      0.3184: real time      0.3193
    SETDIJ:  cpu time      0.0860: real time      0.0862
    TRIAL :  cpu time      0.8632: real time      0.8668
    CORREC:  cpu time      0.7918: real time      0.7942
    CHARGE:  cpu time      0.1229: real time      0.1234
    --------------------------------------------
      LOOP:  cpu time      2.1827: real time      2.1904

 eigenvalue-minimisations  :     0
 total energy-change (2. order) :-0.7780468E-04  (-0.2636914E-04)
 number of electron     447.9999554 magnetization
 augmentation part      154.4769859 magnetization

 DIPCOR: dipole corrections for dipol
 direction  3 min pos     1,
 dipolmoment           0.000000      0.000000      0.157571 electrons x Angstroem
 Tr[quadrupol]     -5996.720278

 energy correction for charged system         0.000000 eV
 dipol+quadrupol energy correction           -0.001478 eV
 added-field ion interaction         -0.086075 eV  (added to PSCEN)


 Free energy of the ion-electron system (eV)
  ---------------------------------------------------
  alpha Z        PSCENC =       875.17176316
  Ewald energy   TEWEN  =    140467.92172078
  -Hartree energ DENC   =   -177550.92153707
  -exchange      EXHF   =         0.00000000
  -V(xc)+E(xc)   XCENC  =      1786.17958217
  PAW double counting   =     34628.39908429   -38415.66111151
  entropy T*S    EENTRO =        -0.00000000
  eigenvalues    EBANDS =     -9839.78660466
  atomic energy  EATOM  =     47783.87840219
  ---------------------------------------------------
  free energy    TOTEN  =      -264.81870067 eV

  energy without entropy =     -264.81870067  energy(sigma->0) =     -264.81870067


--------------------------------------------------------------------------------------------------------




--------------------------------------- Iteration      1(  22)  ---------------------------------------


    POTLOK:  cpu time      0.3180: real time      0.3189
    SETDIJ:  cpu time      0.0861: real time      0.0863
    TRIAL :  cpu time      0.8638: real time      0.8674
[...]
    276       7.6854      0.00000
    277       7.7121      0.00000
    278       7.7140      0.00000
    279       7.7334      0.00000
    280       7.7387      0.00000
    281       8.2096      0.00000
    282       8.2315      0.00000
    283       8.2378      0.00000
    284       8.2424      0.00000
    285       8.2443      0.00000
    286       8.2475      0.00000
    287       8.2488      0.00000
    288       8.2616      0.00000
    289       8.4924      0.00000
    290       8.5354      0.00000
    291       8.5702      0.00000
    292       8.5882      0.00000
    293       9.0349      0.00000
    294       9.0479      0.00000
    295       9.0576      0.00000
    296       9.0714      0.00000
    297       9.1133      0.00000
    298       9.1731      0.00000
    299       9.2046      0.00000
    300       9.2405      0.00000
    301       9.2901      0.00000
    302       9.3497      0.00000
    303       9.4264      0.00000
    304       9.5212      0.00000


--------------------------------------------------------------------------------------------------------


 soft charge-density along one line, spin component           1
         0         1         2         3         4         5         6         7         8         9
 total charge-density along one line

 pseudopotential strength for first ion, spin component:           1
-52.003  -0.000  -0.000   7.271   0.000   0.000  -0.000   0.000
 -0.000 -52.058  -0.000   0.000   7.297   0.000  -0.031   0.079
 -0.000  -0.000 -52.003   0.000   0.000   7.271   0.000  -0.000
  7.271   0.000   0.000   4.188   0.000  -0.000  -0.000   0.000
  0.000   7.297   0.000   0.000   4.192  -0.000  -0.003   0.006
  0.000   0.000   7.271  -0.000  -0.000   4.188   0.000  -0.000
 -0.000  -0.031   0.000  -0.000  -0.003   0.000   2.993 -11.054
  0.000   0.079  -0.000   0.000   0.006  -0.000 -11.054  46.108
 -0.000   0.000   0.000   0.000   0.000  -0.000   0.000  -0.000
  0.009   0.000   0.000  -0.007  -0.000   0.000   0.000  -0.000
 -0.000   0.010   0.000   0.000  -0.015  -0.000   0.008  -0.016
  0.000  -0.000   0.009   0.000   0.000  -0.007   0.000  -0.000
 -0.000  -0.000  -0.000   0.000   0.000   0.000   0.000  -0.000
 total augmentation occupancy for first ion, spin component:           1
  2.002  -0.000   0.000  -0.004   0.000   0.000   0.000   0.000  -0.000  -0.008   0.000   0.000   0.000
 -0.000   2.002   0.000   0.000   0.002  -0.000   0.001   0.004   0.000  -0.000  -0.014   0.000   0.000
  0.000   0.000   2.002   0.000   0.000  -0.004   0.000   0.000  -0.000   0.000   0.000  -0.008  -0.000
 -0.004   0.000   0.000   0.078  -0.000   0.000   0.000  -0.000   0.000   0.001  -0.000   0.000  -0.000
  0.000   0.002   0.000  -0.000   0.048   0.000   0.039   0.001   0.000   0.000   0.026   0.000   0.000
  0.000  -0.000  -0.004   0.000   0.000   0.078  -0.000   0.000  -0.000   0.000   0.000   0.001   0.000
  0.000   0.001   0.000   0.000   0.039  -0.000   0.833   0.013   0.000  -0.000  -0.039   0.000  -0.000
  0.000   0.004   0.000  -0.000   0.001   0.000   0.013   0.000   0.000  -0.000  -0.001   0.000   0.000
 -0.000   0.000  -0.000   0.000   0.000  -0.000   0.000   0.000   0.013   0.000   0.000  -0.000   0.000
 -0.008  -0.000   0.000   0.001   0.000   0.000  -0.000  -0.000   0.000   0.011   0.000   0.000   0.000
  0.000  -0.014   0.000  -0.000   0.026   0.000  -0.039  -0.001   0.000   0.000   0.032   0.000   0.000
  0.000   0.000  -0.008   0.000   0.000   0.001   0.000   0.000  -0.000   0.000   0.000   0.011  -0.000
  0.000   0.000  -0.000  -0.000   0.000   0.000  -0.000   0.000   0.000   0.000   0.000  -0.000   0.053


------------------------ aborting loop because EDIFF is reached ----------------------------------------


    FORLOC:  cpu time      0.0028: real time      0.0028
    FORNL :  cpu time      0.3021: real time      0.3036
    STRESS:  cpu time      2.1053: real time      2.1127
    FORCOR:  cpu time      0.3145: real time      0.3154
    OFIELD:  cpu time      0.0001: real time      0.0001

  FORCE on cell =-STRESS in cart. coord.  units (eV):
  Direction    XX          YY          ZZ          XY          YZ          ZX
  --------------------------------------------------------------------------------------
  Alpha Z   875.25928   875.25928   875.25928
  Ewald  161112.87060161112.87060************     0.00000     0.00000    -0.00000
  Hartree171136.89568171136.89568************    -0.00000    -0.00000    -0.00000
  E(xc)   -2455.73289 -2455.73289 -2455.86666     0.00000     0.00000    -0.00000
  Local  ************************342524.49468     0.00000     0.00000    -0.00000
  n-local -2831.39914 -2832.26184 -2851.52721    -0.00000     0.00000     0.00000
  augment  1051.71277  1051.71277  1042.23835     0.00000    -0.00000     0.00000
  Kinetic  7302.03136  7304.73262  7342.17809    -0.00001     0.00001     0.00000
  Fock        0.00000     0.00000     0.00000     0.00000     0.00000     0.00000
  -------------------------------------------------------------------------------------
  Total     -30.55946   -30.55946    -4.11756     0.00000    -0.00000    -0.00000
  in kB     -32.21545   -32.21545    -4.34069     0.00000    -0.00000    -0.00000
  external pressure =      -22.92 kB  Pullay stress =        0.00 kB


 VOLUME and BASIS-vectors are now :
 -----------------------------------------------------------------------------
  energy-cutoff  :      600.00
  volume of cell :     1519.82
      direct lattice vectors                 reciprocal lattice vectors
     8.440984654  0.000000000  0.000000000     0.118469591  0.000000000  0.000000000
     0.000000000  8.440984654  0.000000000     0.000000000  0.118469591  0.000000000
     0.000000000  0.000000000 21.330738491     0.000000000  0.000000000  0.046880702

  length of vectors
     8.440984654  8.440984654 21.330738491     0.118469591  0.118469591  0.046880702


 FORCES acting on ions:
    Electron-Ion                     Ewald-Force                    Non-Local-Force
 -----------------------------------------------------------------------------------------------
   -.517E-13 0.761E-01 0.207E+04   -.132E-12 -.754E-01 -.206E+04   0.749E-22 -.526E-03 -.680E+01
   -.761E-01 0.599E-12 0.207E+04   0.754E-01 0.537E-13 -.206E+04   0.526E-03 -.371E-22 -.680E+01
   -.420E-13 -.606E-12 0.684E+03   -.151E-10 0.151E-10 -.684E+03   -.575E-23 -.311E-22 0.457E+00
   -.440E+00 0.440E+00 0.683E+03   0.441E+00 -.441E+00 -.684E+03   -.808E-03 0.808E-03 0.493E+00
   -.674E-13 0.275E+00 -.690E+03   0.162E-11 -.271E+00 0.690E+03   -.381E-22 0.143E-02 -.164E+00
   -.275E+00 0.215E-12 -.690E+03   0.271E+00 -.144E-11 0.690E+03   -.143E-02 0.155E-22 -.164E+00
   -.377E-13 0.189E-12 -.205E+04   0.419E-12 -.348E-12 0.204E+04   0.799E-23 0.173E-22 0.568E+01
   -.136E+01 0.136E+01 -.205E+04   0.121E+01 -.121E+01 0.204E+04   0.130E+00 -.130E+00 0.574E+01
   -.517E-13 -.761E-01 0.207E+04   -.356E-12 0.754E-01 -.206E+04   0.828E-23 0.526E-03 -.680E+01
   -.115E+00 0.123E-11 0.207E+04   0.116E+00 0.131E-10 -.206E+04   -.129E-02 -.514E-22 -.680E+01
   -.476E-13 0.209E-12 0.683E+03   -.166E-10 0.391E-13 -.684E+03   -.461E-23 -.880E-23 0.437E+00
   -.440E+00 -.440E+00 0.683E+03   0.441E+00 0.441E+00 -.684E+03   -.808E-03 -.808E-03 0.493E+00
   -.687E-13 -.275E+00 -.690E+03   0.298E-11 0.271E+00 0.690E+03   -.132E-21 -.143E-02 -.164E+00
   -.164E+01 0.135E-12 -.691E+03   0.172E+01 -.995E-13 0.692E+03   -.815E-01 0.460E-22 -.223E+00
   -.601E-13 0.317E-12 -.205E+04   0.142E-13 -.355E-14 0.204E+04   -.213E-22 -.339E-22 0.566E+01
   -.136E+01 -.136E+01 -.205E+04   0.121E+01 0.121E+01 0.204E+04   0.130E+00 0.130E+00 0.574E+01
   0.685E-12 0.115E+00 0.207E+04   -.128E-10 -.116E+00 -.206E+04   -.215E-24 0.129E-02 -.680E+01
   0.761E-01 0.613E-12 0.207E+04   -.754E-01 0.702E-13 -.206E+04   -.526E-03 0.501E-22 -.680E+01
   0.605E-12 0.606E-13 0.683E+03   0.154E-11 0.150E-10 -.684E+03   -.222E-22 0.744E-22 0.437E+00
   0.440E+00 0.440E+00 0.683E+03   -.441E+00 -.441E+00 -.684E+03   0.808E-03 0.808E-03 0.493E+00
   0.608E-12 0.164E+01 -.691E+03   -.153E-11 -.172E+01 0.692E+03   0.257E-22 0.815E-01 -.223E+00
   0.275E+00 0.242E-12 -.690E+03   -.271E+00 -.153E-11 0.690E+03   0.143E-02 -.915E-23 -.164E+00
   0.684E-12 -.471E-13 -.205E+04   0.853E-13 -.249E-13 0.204E+04   0.174E-22 -.350E-22 0.566E+01
   0.136E+01 0.136E+01 -.205E+04   -.121E+01 -.121E+01 0.204E+04   -.130E+00 -.130E+00 0.574E+01
   0.680E-12 -.115E+00 0.207E+04   -.132E-10 0.116E+00 -.206E+04   -.113E-22 -.129E-02 -.680E+01
   0.115E+00 -.882E-12 0.207E+04   -.116E+00 0.131E-10 -.206E+04   0.129E-02 0.633E-22 -.680E+01
   0.609E-12 0.896E-12 0.681E+03   -.249E-13 0.924E-13 -.682E+03   0.854E-23 -.450E-22 0.585E+00
   0.440E+00 -.440E+00 0.683E+03   -.441E+00 0.441E+00 -.684E+03   0.808E-03 -.808E-03 0.493E+00
   0.604E-12 -.164E+01 -.691E+03   0.000E+00 0.172E+01 0.692E+03   0.726E-23 -.815E-01 -.223E+00
   0.164E+01 -.162E-11 -.691E+03   -.172E+01 -.284E-13 0.692E+03   0.815E-01 -.617E-22 -.223E+00
   0.690E-12 0.135E-11 -.207E+04   0.675E-13 -.711E-14 0.206E+04   0.422E-22 0.605E-22 0.609E+01
   0.136E+01 -.136E+01 -.205E+04   -.121E+01 0.121E+01 0.204E+04   -.130E+00 0.130E+00 0.574E+01
   -.383E-13 0.176E+00 0.512E+03   0.950E-13 -.177E+00 -.512E+03   -.739E-23 0.145E-02 -.903E-01
   -.176E+00 0.286E-12 0.512E+03   0.177E+00 -.444E-14 -.512E+03   -.145E-02 -.219E-22 -.903E-01
   -.294E-13 0.148E-11 0.155E+04   0.854E-11 -.844E-11 -.156E+04   0.125E-22 -.391E-22 0.360E+01
   -.724E-01 0.724E-01 0.155E+04   0.725E-01 -.725E-01 -.156E+04   -.315E-04 0.315E-04 0.360E+01
   -.108E-13 0.424E+00 -.156E+04   -.799E-12 -.450E+00 0.156E+04   0.340E-22 0.132E-01 -.523E+01
   -.424E+00 -.189E-12 -.156E+04   0.450E+00 0.856E-12 0.156E+04   -.132E-01 -.374E-22 -.523E+01
   -.445E-13 0.774E-13 -.512E+03   -.711E-14 0.497E-13 0.511E+03   -.392E-22 0.770E-22 0.224E+00
   -.696E+00 0.696E+00 -.511E+03   0.687E+00 -.687E+00 0.511E+03   0.178E-01 -.178E-01 0.325E+00
   -.404E-13 -.176E+00 0.512E+03   0.924E-13 0.177E+00 -.512E+03   0.223E-22 -.145E-02 -.903E-01
   -.414E+00 0.670E-12 0.511E+03   0.385E+00 -.762E-11 -.511E+03   0.393E-01 0.178E-22 -.103E+00
   -.259E-13 0.205E-11 0.155E+04   0.846E-11 -.867E-12 -.156E+04   0.159E-22 0.183E-22 0.360E+01
   -.724E-01 -.724E-01 0.155E+04   0.725E-01 0.725E-01 -.156E+04   -.315E-04 -.315E-04 0.360E+01
   -.652E-14 -.424E+00 -.156E+04   -.782E-12 0.450E+00 0.156E+04   0.103E-22 -.132E-01 -.523E+01
   -.307E+01 -.943E-13 -.156E+04   0.301E+01 0.818E-11 0.156E+04   0.196E+00 0.938E-22 -.492E+01
   -.282E-13 0.576E-12 -.511E+03   -.742E-11 0.711E-14 0.510E+03   -.291E-23 0.120E-22 0.307E+00
   -.696E+00 -.696E+00 -.511E+03   0.687E+00 0.687E+00 0.511E+03   0.178E-01 0.178E-01 0.325E+00
   0.286E-12 0.414E+00 0.511E+03   0.763E-11 -.385E+00 -.511E+03   0.103E-22 -.393E-01 -.103E+00
   0.176E+00 0.305E-12 0.512E+03   -.177E+00 -.568E-13 -.512E+03   0.145E-02 -.325E-22 -.903E-01
   0.308E-12 -.970E-12 0.155E+04   0.918E-12 -.848E-11 -.156E+04   0.164E-22 -.176E-22 0.360E+01
   0.724E-01 0.724E-01 0.155E+04   -.725E-01 -.725E-01 -.156E+04   0.315E-04 0.315E-04 0.360E+01
   0.349E-12 0.307E+01 -.156E+04   -.815E-11 -.301E+01 0.156E+04   0.709E-22 -.196E+00 -.492E+01
   0.424E+00 -.175E-12 -.156E+04   -.450E+00 0.888E-12 0.156E+04   0.132E-01 0.152E-22 -.523E+01
   0.283E-12 0.508E-12 -.511E+03   -.355E-13 0.743E-11 0.510E+03   0.730E-24 -.729E-23 0.307E+00
   0.696E+00 0.696E+00 -.511E+03   -.687E+00 -.687E+00 0.511E+03   -.178E-01 -.178E-01 0.325E+00
   0.286E-12 -.414E+00 0.511E+03   0.769E-11 0.385E+00 -.511E+03   -.468E-22 0.393E-01 -.103E+00
   0.414E+00 -.145E-11 0.511E+03   -.385E+00 -.770E-11 -.511E+03   -.393E-01 -.299E-22 -.103E+00
   0.319E-12 -.525E-12 0.155E+04   0.876E-12 -.888E-12 -.156E+04   -.136E-22 -.156E-22 0.360E+01
   0.724E-01 -.724E-01 0.155E+04   -.725E-01 0.725E-01 -.156E+04   0.315E-04 -.315E-04 0.360E+01
   0.341E-12 -.307E+01 -.156E+04   -.818E-11 0.301E+01 0.156E+04   0.519E-22 0.196E+00 -.492E+01
   0.307E+01 0.131E-11 -.156E+04   -.301E+01 0.818E-11 0.156E+04   -.196E+00 -.419E-22 -.492E+01
   0.279E-12 0.736E-12 -.520E+03   -.782E-13 0.355E-13 0.520E+03   -.185E-22 0.447E-22 -.125E+00
   0.696E+00 -.696E+00 -.511E+03   -.687E+00 0.687E+00 0.511E+03   -.178E-01 0.178E-01 0.325E+00
 -----------------------------------------------------------------------------------------------
   0.208E-10 0.222E-10 0.165E+02   -.165E-12 0.179E-12 0.841E-11   0.347E-17 0.000E+00 -.165E+02


 POSITION                                       TOTAL-FORCE (eV/Angst)
 -----------------------------------------------------------------------------------
      0.00000      6.33074      7.50000         0.000000      0.000174      0.317719
      2.11025      0.00000      7.50000        -0.000174     -0.000000      0.317719
      0.00000      0.00000      9.61025         0.000000     -0.000000      0.042120
      2.11025      6.33074      9.61025         0.000710     -0.000710      0.041261
      0.00000      6.33023     11.73368         0.000000      0.005822      0.033834
      2.11076      0.00000     11.73368        -0.005822     -0.000000      0.033834
      0.00000      0.00000     13.83822         0.000000     -0.000000      0.041377
      2.10905      6.33193     13.83447        -0.023918      0.023918      0.052870
      0.00000      2.11025      7.50000         0.000000     -0.000174      0.317719
      2.11025      4.22049      7.50000         0.000256     -0.000000      0.317341
      0.00000      4.22049      9.61025         0.000000     -0.000000      0.047010
      2.11025      2.11025      9.61025         0.000710      0.000710      0.041261
      0.00000      2.11076     11.73368         0.000000     -0.005822      0.033834
      2.11344      4.22049     11.73659        -0.006931     -0.000000      0.023979
      0.00000      4.22049     13.83544         0.000000     -0.000000      0.057711
      2.10905      2.10905     13.83447        -0.023918     -0.023918      0.052870
      4.22049      6.33074      7.50000         0.000000     -0.000256      0.317341
      6.33074      0.00000      7.50000         0.000174     -0.000000      0.317719
      4.22049      0.00000      9.61025         0.000000     -0.000000      0.047010
      6.33074      6.33074      9.61025        -0.000710     -0.000710      0.041261
      4.22049      6.32754     11.73659         0.000000      0.006931      0.023979
      6.33023      0.00000     11.73368         0.005822     -0.000000      0.033834
      4.22049      0.00000     13.83544         0.000000     -0.000000      0.057711
      6.33193      6.33193     13.83447         0.023918      0.023918      0.052870
      4.22049      2.11025      7.50000         0.000000      0.000256      0.317341
      6.33074      4.22049      7.50000        -0.000256     -0.000000      0.317341
      4.22049      4.22049      9.61025         0.000000     -0.000000      0.049305
      6.33074      2.11025      9.61025        -0.000710      0.000710      0.041261
      4.22049      2.11344     11.73659         0.000000     -0.006931      0.023979
      6.32754      4.22049     11.73659         0.006931     -0.000000      0.023979
      4.22049      4.22049     13.87814         0.000000     -0.000000     -0.240681
      6.33193      2.10905     13.83447         0.023918     -0.023918      0.052870
      0.00000      6.33074      9.61025         0.000000      0.000620      0.062466
      2.11025      0.00000      9.61025        -0.000620     -0.000000      0.062466
      0.00000      0.00000      7.50000         0.000000     -0.000000     -0.402299
      2.11025      6.33074      7.50000        -0.000008      0.000008     -0.401838
      0.00000      6.33258     13.88587         0.000000     -0.012938     -0.124440
      2.10840      0.00000     13.88587         0.012938     -0.000000     -0.124440
      0.00000      0.00000     11.72785         0.000000     -0.000000      0.007914
      2.10979      6.33120     11.72890         0.008032     -0.008032      0.007411
      0.00000      2.11025      9.61025         0.000000     -0.000620      0.062466
      2.11025      4.22049      9.61025         0.010336     -0.000000      0.073122
      0.00000      4.22049      7.50000         0.000000     -0.000000     -0.401879
      2.11025      2.11025      7.50000        -0.000008     -0.000008     -0.401838
      0.00000      2.10840     13.88587         0.000000      0.012938     -0.124440
      2.10031      4.22049     13.88381         0.135841     -0.000000     -0.044946
      0.00000      4.22049     11.72684         0.000000     -0.000000      0.022309
      2.10979      2.10979     11.72890         0.008032      0.008032      0.007411
      4.22049      6.33074      9.61025         0.000000     -0.010336      0.073122
      6.33074      0.00000      9.61025         0.000620     -0.000000      0.062466
      4.22049      0.00000      7.50000         0.000000     -0.000000     -0.401879
      6.33074      6.33074      7.50000         0.000008      0.000008     -0.401838
      4.22049      6.34068     13.88381         0.000000     -0.135841     -0.044946
      6.33258      0.00000     13.88587        -0.012938     -0.000000     -0.124440
      4.22049      0.00000     11.72684         0.000000     -0.000000      0.022309
      6.33120      6.33120     11.72890        -0.008032     -0.008032      0.007411
      4.22049      2.11025      9.61025         0.000000      0.010336      0.073122
      6.33074      4.22049      9.61025        -0.010336     -0.000000      0.073122
      4.22049      4.22049      7.50000         0.000000     -0.000000     -0.402080
      6.33074      2.11025      7.50000         0.000008     -0.000008     -0.401838
      4.22049      2.10031     13.88381         0.000000      0.135841     -0.044946
      6.34068      4.22049     13.88381        -0.135841     -0.000000     -0.044946
      4.22049      4.22049     11.73684         0.000000     -0.000000      0.018922
      6.33120      2.10979     11.72890        -0.008032      0.008032      0.007411
 -----------------------------------------------------------------------------------
    total drift:                                0.000000      0.000000     -0.007287


--------------------------------------------------------------------------------------------------------



  FREE ENERGIE OF THE ION-ELECTRON SYSTEM (eV)
  ---------------------------------------------------
  free  energy   TOTEN  =      -264.81874195 eV

  energy  without entropy=     -264.81874195  energy(sigma->0) =     -264.81874195



--------------------------------------------------------------------------------------------------------


    POTLOK:  cpu time      0.4009: real time      0.4021


--------------------------------------------------------------------------------------------------------


     LOOP+:  cpu time     62.6588: real time     62.8960
    4ORBIT:  cpu time      0.0000: real time      0.0000

 total amount of memory used by VASP MPI-rank0   114954. kBytes
=======================================================================

   base      :      30000. kBytes
   nonl-proj :      42083. kBytes
   fftplans  :      14615. kBytes
   grid      :      20512. kBytes
   one-center:        259. kBytes
   wavefun   :       7485. kBytes



 General timing and accounting informations for this job:
 ========================================================

                  Total CPU time used (sec):       65.803
                            User time (sec):       64.996
                          System time (sec):        0.808
                         Elapsed time (sec):       66.707

                   Maximum memory used (kb):      487680.
                   Average memory used (kb):          N/A

                          Minor page faults:       131448
                          Major page faults:          123
                 Voluntary context switches:         1877
