
                                 *****************
                                 * O   R   C   A *
                                 *****************

                                            #,                                       
                                            ###                                      
                                            ####                                     
                                            #####                                    
                                            ######                                   
                                           ########,                                 
                                     ,,################,,,,,                         
                               ,,#################################,,                 
                          ,,##########################################,,             
                       ,#########################################, ''#####,          
                    ,#############################################,,   '####,        
                  ,##################################################,,,,####,       
                ,###########''''           ''''###############################       
              ,#####''   ,,,,##########,,,,          '''####'''          '####       
            ,##' ,,,,###########################,,,                        '##       
           ' ,,###''''                  '''############,,,                           
         ,,##''                                '''############,,,,        ,,,,,,###''
      ,#''                                            '''#######################'''  
     '                                                          ''''####''''         
             ,#######,   #######,   ,#######,      ##                                
            ,#'     '#,  ##    ##  ,#'     '#,    #''#        ,####,   ,####,        
            ##       ##  ##   ,#'  ##            #'  '#       #'       #'  '#        
            ##       ##  #######   ##           ,######,      #####,   #    #        
            '#,     ,#'  ##    ##  '#,     ,#' ,#      #,     #,   #   #,  ,#        
             '#######'   ##     ##  '#######'  #'      '#     '####' # '####'        



                #########################################################
                #                        -***-                          #
                #          Department of theory and spectroscopy        #
                #                                                       #
                #                      Frank Neese                      #
                #                                                       #
                #     Directorship, Architecture, Infrastructure        #
                #                    SHARK, DRIVERS                     #
                #        Core code/Algorithms in most modules           #
                #                                                       #
                #        Max Planck Institute fuer Kohlenforschung      #
                #                Kaiser Wilhelm Platz 1                 #
                #                 D-45470 Muelheim/Ruhr                 #
                #                      Germany                          #
                #                                                       #
                #                  All rights reserved                  #
                #                        -***-                          #
                #########################################################


                         Program Version 6.0.0  -   RELEASE  -


 With contributions from (in alphabetic order):
   Daniel Aravena         : Magnetic Suceptibility
   Michael Atanasov       : Ab Initio Ligand Field Theory (pilot matlab implementation)
   Alexander A. Auer      : GIAO ZORA, VPT2 properties, NMR spectrum
   Ute Becker             : All parallelization in ORCA, NUMFREQ, NUMCALC
   Giovanni Bistoni       : ED, misc. LED, open-shell LED, HFLD
   Martin Brehm           : Molecular dynamics
   Dmytro Bykov           : pre 5.0 version of the SCF Hessian
   Marcos Casanova-Páez   : Triplet and SCS-CIS(D). UHF-(DLPNO)-IP/EA/STEOM-CCSD. UHF-CVS-IP/STEOM-CCSD
   Vijay G. Chilkuri      : MRCI spin determinant printing, contributions to CSF-ICE
   Pauline Colinet        : FMM embedding
   Dipayan Datta          : RHF DLPNO-CCSD density
   Achintya Kumar Dutta   : EOM-CC, STEOM-CC
   Nicolas Foglia         : Exact transition moments, OPA infrastructure, MCD improvements
   Dmitry Ganyushin       : Spin-Orbit,Spin-Spin,Magnetic field MRCI
   Miquel Garcia          : C-PCM and meta-GGA Hessian, CCSD/C-PCM, Gaussian charge scheme
   Tiago L. C. Gouveia    : GS-ROHF, GS-ROCIS
   Yang Guo               : DLPNO-NEVPT2, F12-NEVPT2, CIM, IAO-localization
   Andreas Hansen         : Spin unrestricted coupled pair/coupled cluster methods
   Ingolf Harden          : AUTO-CI MPn and infrastructure 
   Benjamin Helmich-Paris : MC-RPA, TRAH-(SCF,CASSCF), AVAS, COSX integrals, SCF dyn. polar.
   Lee Huntington         : MR-EOM, pCC
   Robert Izsak           : Overlap fitted RIJCOSX, COSX-SCS-MP3, EOM
   Riya Kayal             : Wick's Theorem for AUTO-CI, AUTO-CI UHF-CCSDT
   Emily Kempfer          : AUTO-CI, RHF CISDT and CCSDT
   Christian Kollmar      : KDIIS, OOCD, Brueckner-CCSD(T), CCSD density, CASPT2, CASPT2-K, improved NEVPT2
   Axel Koslowski         : Symmetry handling
   Simone Kossmann        : Meta GGA functionals, TD-DFT gradient, OOMP2, (MP2 Hessian; deprecated post 5.0)
   Lucas Lang             : DCDCAS
   Marvin Lechner         : AUTO-CI (C++ implementation), FIC-MRCC
   Spencer Leger          : CASSCF response
   Dagmar Lenk            : GEPOL surface, SMD, ORCA-2-JSON
   Dimitrios Liakos       : Extrapolation schemes; Compound Job, initial MDCI parallelization
   Dimitrios Manganas     : Further ROCIS development; embedding schemes. LFT, Crystal Embedding
   Dimitrios Pantazis     : SARC Basis sets
   Anastasios Papadopoulos: AUTO-CI, single reference methods and gradients
   Taras Petrenko         : pre 6.0 DFT Hessian and TD-DFT gradient, (ASA, deprecated), ECA, 1-Electron XAS/XES, NRVS
   Peter Pinski           : DLPNO-MP2, DLPNO-MP2 Gradient
   Christoph Reimann      : Effective Core Potentials
   Marius Retegan         : Local ZFS, SOC
   Christoph Riplinger    : Optimizer, TS searches, QM/MM, DLPNO-CCSD(T), (RO)-DLPNO pert. Triples
   Michael Roemelt        : Original ROCIS implementation
   Masaaki Saitow         : Open-shell DLPNO-CCSD energy and density
   Barbara Sandhoefer     : DKH picture change effects
   Kantharuban Sivalingam : CASSCF convergence/infrastructure, NEVPT2 and variants, FIC-MRCI
   Bernardo de Souza      : ESD, SOC TD-DFT
   Georgi Stoychev        : AutoAux, RI-MP2 NMR, DLPNO-MP2 response, X2C
   Van Anh Tran           : RI-MP2 g-tensors
   Willem Van den Heuvel  : Paramagnetic NMR
   Zikuan Wang            : NOTCH, Electric field optimization 
   Frank Wennmohs         : Technical directorship and infrastructure
   Hang Xu                : AUTO-CI-Response properties 


 We gratefully acknowledge several colleagues who have allowed us to
 interface, adapt or use parts of their codes:
   Stefan Grimme, W. Hujo, H. Kruse, P. Pracht,  : VdW corrections, initial TS optimization,
                  C. Bannwarth, S. Ehlert,         DFT functionals, gCP, sTDA/sTD-DF
                  L. Wittmann, M. Mueller
   Ed Valeev, F. Pavosevic, A. Kumar             : LibInt (2-el integral package), F12 methods
   Garnet Chan, S. Sharma, J. Yang, R. Olivares  : DMRG
   Ulf Ekstrom                                   : XCFun DFT Library
   Mihaly Kallay                                 : mrcc  (arbitrary order and MRCC methods)
   Frank Weinhold                                : gennbo (NPA and NBO analysis)
   Simon Mueller                                 : openCOSMO-RS
   Christopher J. Cramer and Donald G. Truhlar   : smd solvation model
   Lars Goerigk                                  : TD-DFT with DH, B97 family of functionals
   V. Asgeirsson, H. Jonsson                     : NEB implementation
   FAccTs GmbH                                   : IRC, NEB, NEB-TS, DLPNO-Multilevel, CI-OPT
                                                   MM, QMMM, 2- and 3-layer-ONIOM, Crystal-QMMM,
                                                   LR-CPCM, SF, NACMEs, symmetry and pop. for TD-DFT,
                                                   nearIR, NL-DFT gradient (VV10), updates on ESD,
                                                   ML-optimized integration grids, MBIS, APM,
                                                   GOAT, DOCKER, SOLVATOR, interface openCOSMO-RS
   S Lehtola, MJT Oliveira, MAL Marques          : LibXC Library
   Liviu Ungur et al                             : ANISO software


 Your calculation uses the libint2 library for the computation of 2-el integrals
 For citations please refer to: http://libint.valeyev.net

 Your ORCA version has been built with support for libXC version: 6.2.2
 For citations please refer to: https://libxc.gitlab.io

 This ORCA versions uses:
   CBLAS   interface :  Fast vector & matrix operations
   LAPACKE interface :  Fast linear algebra routines
   SCALAPACK package :  Parallel linear algebra routines
   Shared memory     :  Shared parallel matrices
   BLAS/LAPACK       :  OpenBLAS 0.3.27  USE64BITINT DYNAMIC_ARCH NO_AFFINITY Haswell SINGLE_THREADED
        Core in use  :  Haswell
   Copyright (c) 2011-2014, The OpenBLAS Project


NOTE: MaxCore=25000 MB was set to SCF,MP2,MDCI,CIPSI,MRCI and CIS
      => If you want to overwrite this, your respective input block should be placed after the MaxCore statement
Setting NCore(C ) from 2 to 2
Setting NCore(Mg) from 2 to 2
Setting NCore(O ) from 2 to 2
SCAN-COORDS
================================================================================

----- Orbital basis set information -----
Your calculation utilizes the basis: def2-SVP
   F. Weigend and R. Ahlrichs, Phys. Chem. Chem. Phys. 7, 3297 (2005).

The basis set includes element-specific modifications.

Your calculation utilizes the basis: aug-cc-pVQZ 
    H, B-Ne : Obtained from the ccRepo (grant-hill.group.shef.ac.uk/ccrepo) Feb. 2017
              R. A. Kendall, T. H. Dunning, Jr., R. J. Harrison, J. Chem. Phys. 96, 6796 (1992)
         He : Obtained from the ccRepo (grant-hill.group.shef.ac.uk/ccrepo) Feb. 2017
              D. E. Woon, T. H. Dunning, Jr., J. Chem. Phys. 100, 2975 (1994)
  Li-Be, Na : Obtained from the ccRepo (grant-hill.group.shef.ac.uk/ccrepo) Feb. 2017
              B. P. Prascher, D. E. Woon, K. A. Peterson, T. H. Dunning, Jr., A. K. Wilson, Theor. Chem. Acc. 128, 69 (2011)
         Mg : Obtained from the Peterson Research Group Website (tyr0.chem.wsu.edu/~kipeters) Feb. 2017
              B. P. Prascher, D. E. Woon, K. A. Peterson, T. H. Dunning, Jr., A. K. Wilson, Theor. Chem. Acc. 128, 69 (2011)
      Al-Ar : Obtained from the ccRepo (grant-hill.group.shef.ac.uk/ccrepo) Feb. 2017
              D. E. Woon, T. H. Dunning, Jr., J. Chem. Phys. 98, 1358 (1993)
      Sc-Zn : Obtained from the ccRepo (grant-hill.group.shef.ac.uk/ccrepo) Feb. 2017
              N. B. Balabanov, K. A. Peterson, J. Chem. Phys. 123, 064107 (2005)
              N. B. Balabanov, K. A. Peterson, J. Chem. Phys. 125, 074110 (2006)
      Ga-Kr : Obtained from the ccRepo (grant-hill.group.shef.ac.uk/ccrepo) Feb. 2017
              A. K. Wilson, D. E. Woon, K. A. Peterson, T. H. Dunning, Jr., J. Chem. Phys. 110, 7667 (1999)

Your calculation utilizes the basis: cc-pwCVQZ 
             H : cc-pVQZ. Obtained from the ccRepo (grant-hill.group.shef.ac.uk/ccrepo) Feb. 2017
                 T. H. Dunning, Jr., J. Chem. Phys. 90, 1007 (1989)
            He : cc-pVQZ. Obtained from the ccRepo (grant-hill.group.shef.ac.uk/ccrepo) Feb. 2017
                 D. E. Woon, T. H. Dunning, Jr., J. Chem. Phys. 100, 2975 (1994)
  Li-Be, Na-Mg : Obtained from the ccRepo (grant-hill.group.shef.ac.uk/ccrepo) Feb. 2017
                 B. P. Prascher, D. E. Woon, K. A. Peterson, T. H. Dunning, Jr., A. K. Wilson, Theor. Chem. Acc. 128, 69 (2011)
          B-Ne : Obtained from the ccRepo (grant-hill.group.shef.ac.uk/ccrepo) Feb. 2017
                 K. A. Peterson, T. H. Dunning, Jr., J. Chem. Phys. 117, 10548 (2002)
         Al-Ar : Obtained from the EMSL Basis Set Exchange (bse.pnl.gov) Feb. 2017
                 K. A. Peterson, T. H. Dunning, Jr., J. Chem. Phys. 117, 10548 (2002)
            Ca : Obtained from the Peterson Research Group Website (tyr0.chem.wsu.edu/~kipeters) Feb. 2017
                 J. Koput, K. A. Peterson, J. Phys. Chem. 106, 9595 (2002)
         Sc-Zn : Obtained from the ccRepo (grant-hill.group.shef.ac.uk/ccrepo) Feb. 2017
                 N. B. Balabanov, K. A. Peterson, J. Chem. Phys. 123, 064107 (2005)
                 N. B. Balabanov, K. A. Peterson, J. Chem. Phys. 125, 074110 (2006)
         Ga-Kr : Obtained from the Peterson Research Group Website (tyr0.chem.wsu.edu/~kipeters) Feb. 2017
                 K. A. Peterson, K. E. Yousaf, J. Chem. Phys. 133, 174116 (2010)
                 N. J. DeYonker, K. A. Peterson, A. K. Wilson, J. Phys. Chem. A 111, 11383 (2007)

----- AuxJ basis set information -----
Your calculation utilizes the auxiliary basis: def2/J
   F. Weigend, Phys. Chem. Chem. Phys. 8, 1057 (2006).

----- AuxC basis set information -----
The basis set includes element-specific modifications.

Your calculation utilizes the auxiliary basis: aug-cc-pVQZ/C 
  H-He, B-F, Al-Ar, Ga-Kr : Obtained from the EMSL Basis Set Exchange (bse.pnl.gov) Feb. 2017
                            F. Weigend, A. Kohn, C. Hattig, J. Chem. Phys. 116, 3175 (2002)
                   Be, Mg : Obtained from the TURBOMOLE 7.0 basis set library
                            C. Haettig, Phys. Chem. Chem. Phys. 7, 59 (2005)
                       Ne : Obtained from the EMSL Basis Set Exchange (bse.pnl.gov) Feb. 2017
                            C. Haettig, Phys. Chem. Chem. Phys. 7, 59 (2005)
                            F. Weigend, A. Kohn, C. Hattig, J. Chem. Phys. 116, 3175 (2002)
                    Sc-Zn : Obtained from the EMSL Basis Set Exchange (bse.pnl.gov) Feb. 2017
                            D. H. Bross, J. G. Hill, H. J. Werner, K. A. Peterson, J. Chem. Phys. 139, 094302 (2013)

Your calculation utilizes the AutoAux generation procedure.
  G. L. Stoychev, A. A. Auer, F. Neese, J. Chem. Theory Comput. 13, 554 (2017)

================================================================================
                                        WARNINGS
                       Please study these warnings very carefully!
================================================================================

WARNING: Old DensityContainer found on disk!
         Will remove this file - 
         If you want to keep old densities, please start your calculation with a different basename. 

WARNING: The globally-selected AuxJ basis set is optimized for use with ECPs
         Make sure a suitable alternative is explicitly given all heavy elements (Z>36)

WARNING: No MP2 level density has been requested!
         To calculate MP2 level properties use
         %mp2 Density relaxed end
         or
         %mp2 Density unrelaxed end

WARNING: Post HF methods need fully converged wavefunctions
  ===> : Setting SCFConvForced true
         You can overwrite this default with %scf ConvForced false 


WARNING: The chosen methods will break translational/rotational symmetry
  ===> : Will NOT project out the translational and rotational degrees of freedom
         of the Hessians, in case Hessians are calculated!

WARNING: The chosen methods will break translational symmetry
  ===> : Will NOT exploit translational invariance of the Hessians,
         in case Hessians are calculated!

WARNING: The chosen methods will break translational symmetry
  ===> : Will NOT make the numerical gradients translationally invariant,
         in case numerical gradients are calculated!

================================================================================
                                       INPUT FILE
================================================================================
NAME = orca.inp
|  1> ! TightSCF RI-MP2 RIJCOSX SlowConv DIIS 
|  2> %pal nprocs 8 end
|  3> %maxcore 25000
|  4> %pointcharges "orca.pc"
|  5> %method
|  6> Method hf
|  7> RI on
|  8> RunTyp Energy
|  9> NewNCore C 2 end
| 10> NewNCore Mg 2 end
| 11> NewNCore O 2 end
| 12> end
| 13> %basis
| 14> NewGTO C "aug-cc-pVQZ" end
| 15> NewGTO Mg "cc-pwCVQZ" end
| 16> NewGTO O "aug-cc-pVQZ" end
| 17> Aux "def2/J"
| 18> NewAuxCGTO C "aug-cc-pVQZ/C" end
| 19> NewAuxCGTO Mg "AutoAux" end
| 20> NewAuxCGTO O "aug-cc-pVQZ/C" end
| 21> end
| 22> %scf
| 23> HFTyp rhf
| 24> SCFMode Direct
| 25> sthresh 1e-6
| 26> AutoTRAHIter 60
| 27> MaxIter 1000
| 28> end
| 29> %coords
| 30> CTyp xyz
| 31> Mult 1
| 32> Units angs
| 33> Charge -24
| 34> coords
| 35> C:                      0.00000000000    0.00000000000    2.44102235837
| 36> O:                      0.00000000000    0.00000000000    3.58784217303
| 37> Mg                      0.00000000000    0.00000000000    0.00000000000
| 38> O                      -2.12018425659    0.00000000000    0.00567209089
| 39> O                       0.00000000000    2.12018425659    0.00567209089
| 40> O                       2.12018425659    0.00000000000    0.00567209089
| 41> O                       0.00000000000   -2.12018425659    0.00567209089
| 42> O                       0.00000000000    0.00000000000   -2.14129966123
| 43> Mg                     -2.11144262254    2.11144262254   -0.04367284424
| 44> Mg                      2.11144262254    2.11144262254   -0.04367284424
| 45> Mg                      2.11144262254   -2.11144262254   -0.04367284424
| 46> Mg                     -2.11144262254   -2.11144262254   -0.04367284424
| 47> O                      -2.11070451449    2.11070451449   -2.14923989662
| 48> O                       2.11070451449    2.11070451449   -2.14923989662
| 49> O                       2.11070451449   -2.11070451449   -2.14923989662
| 50> O                      -2.11070451449   -2.11070451449   -2.14923989662
| 51> O                      -4.22049352791    2.11209139723    0.00772802266
| 52> O                      -2.11209139723    4.22049352791    0.00772802266
| 53> O                       2.11209139723    4.22049352791    0.00772802266
| 54> O                       4.22049352791    2.11209139723    0.00772802266
| 55> O                       4.22049352791   -2.11209139723    0.00772802266
| 56> O                       2.11209139723   -4.22049352791    0.00772802266
| 57> O                      -2.11209139723   -4.22049352791    0.00772802266
| 58> O                      -4.22049352791   -2.11209139723    0.00772802266
| 59> Mg>    2.00000000000   -2.10705287155    0.00000000000   -2.14155206950
| 60> NewECP
| 61> N_core 0
| 62> lmax f
| 63> s 1
| 64> 1      1.732000000   14.676000000 2
| 65> p 1
| 66> 1      1.115000000    5.175700000 2
| 67> d 1
| 68> 1      1.203000000   -1.816000000 2
| 69> f 1
| 70> 1      1.000000000    0.000000000 2
| 71> end
| 72> Mg>    2.00000000000    0.00000000000    2.10705287155   -2.14155206950
| 73> NewECP
| 74> N_core 0
| 75> lmax f
| 76> s 1
| 77> 1      1.732000000   14.676000000 2
| 78> p 1
| 79> 1      1.115000000    5.175700000 2
| 80> d 1
| 81> 1      1.203000000   -1.816000000 2
| 82> f 1
| 83> 1      1.000000000    0.000000000 2
| 84> end
| 85> Mg>    2.00000000000    2.10705287155    0.00000000000   -2.14155206950
| 86> NewECP
| 87> N_core 0
| 88> lmax f
| 89> s 1
| 90> 1      1.732000000   14.676000000 2
| 91> p 1
| 92> 1      1.115000000    5.175700000 2
| 93> d 1
| 94> 1      1.203000000   -1.816000000 2
| 95> f 1
| 96> 1      1.000000000    0.000000000 2
| 97> end
| 98> Mg>    2.00000000000    0.00000000000   -2.10705287155   -2.14155206950
| 99> NewECP
|100> N_core 0
|101> lmax f
|102> s 1
|103> 1      1.732000000   14.676000000 2
|104> p 1
|105> 1      1.115000000    5.175700000 2
|106> d 1
|107> 1      1.203000000   -1.816000000 2
|108> f 1
|109> 1      1.000000000    0.000000000 2
|110> end
|111> Mg>    2.00000000000   -4.22049352791    0.00000000000   -0.04269731856
|112> NewECP
|113> N_core 0
|114> lmax f
|115> s 1
|116> 1      1.732000000   14.676000000 2
|117> p 1
|118> 1      1.115000000    5.175700000 2
|119> d 1
|120> 1      1.203000000   -1.816000000 2
|121> f 1
|122> 1      1.000000000    0.000000000 2
|123> end
|124> Mg>    2.00000000000    0.00000000000    4.22049352791   -0.04269731856
|125> NewECP
|126> N_core 0
|127> lmax f
|128> s 1
|129> 1      1.732000000   14.676000000 2
|130> p 1
|131> 1      1.115000000    5.175700000 2
|132> d 1
|133> 1      1.203000000   -1.816000000 2
|134> f 1
|135> 1      1.000000000    0.000000000 2
|136> end
|137> Mg>    2.00000000000    4.22049352791    0.00000000000   -0.04269731856
|138> NewECP
|139> N_core 0
|140> lmax f
|141> s 1
|142> 1      1.732000000   14.676000000 2
|143> p 1
|144> 1      1.115000000    5.175700000 2
|145> d 1
|146> 1      1.203000000   -1.816000000 2
|147> f 1
|148> 1      1.000000000    0.000000000 2
|149> end
|150> Mg>    2.00000000000    0.00000000000   -4.22049352791   -0.04269731856
|151> NewECP
|152> N_core 0
|153> lmax f
|154> s 1
|155> 1      1.732000000   14.676000000 2
|156> p 1
|157> 1      1.115000000    5.175700000 2
|158> d 1
|159> 1      1.203000000   -1.816000000 2
|160> f 1
|161> 1      1.000000000    0.000000000 2
|162> end
|163> Mg>    2.00000000000    0.00000000000    0.00000000000   -4.26789528527
|164> NewECP
|165> N_core 0
|166> lmax f
|167> s 1
|168> 1      1.732000000   14.676000000 2
|169> p 1
|170> 1      1.115000000    5.175700000 2
|171> d 1
|172> 1      1.203000000   -1.816000000 2
|173> f 1
|174> 1      1.000000000    0.000000000 2
|175> end
|176> Mg>    2.00000000000   -4.22049352791    2.10973412517   -2.14445912302
|177> NewECP
|178> N_core 0
|179> lmax f
|180> s 1
|181> 1      1.732000000   14.676000000 2
|182> p 1
|183> 1      1.115000000    5.175700000 2
|184> d 1
|185> 1      1.203000000   -1.816000000 2
|186> f 1
|187> 1      1.000000000    0.000000000 2
|188> end
|189> Mg>    2.00000000000   -2.10973412517    4.22049352791   -2.14445912302
|190> NewECP
|191> N_core 0
|192> lmax f
|193> s 1
|194> 1      1.732000000   14.676000000 2
|195> p 1
|196> 1      1.115000000    5.175700000 2
|197> d 1
|198> 1      1.203000000   -1.816000000 2
|199> f 1
|200> 1      1.000000000    0.000000000 2
|201> end
|202> Mg>    2.00000000000    2.10973412517    4.22049352791   -2.14445912302
|203> NewECP
|204> N_core 0
|205> lmax f
|206> s 1
|207> 1      1.732000000   14.676000000 2
|208> p 1
|209> 1      1.115000000    5.175700000 2
|210> d 1
|211> 1      1.203000000   -1.816000000 2
|212> f 1
|213> 1      1.000000000    0.000000000 2
|214> end
|215> Mg>    2.00000000000    4.22049352791    2.10973412517   -2.14445912302
|216> NewECP
|217> N_core 0
|218> lmax f
|219> s 1
|220> 1      1.732000000   14.676000000 2
|221> p 1
|222> 1      1.115000000    5.175700000 2
|223> d 1
|224> 1      1.203000000   -1.816000000 2
|225> f 1
|226> 1      1.000000000    0.000000000 2
|227> end
|228> Mg>    2.00000000000    4.22049352791   -2.10973412517   -2.14445912302
|229> NewECP
|230> N_core 0
|231> lmax f
|232> s 1
|233> 1      1.732000000   14.676000000 2
|234> p 1
|235> 1      1.115000000    5.175700000 2
|236> d 1
|237> 1      1.203000000   -1.816000000 2
|238> f 1
|239> 1      1.000000000    0.000000000 2
|240> end
|241> Mg>    2.00000000000    2.10973412517   -4.22049352791   -2.14445912302
|242> NewECP
|243> N_core 0
|244> lmax f
|245> s 1
|246> 1      1.732000000   14.676000000 2
|247> p 1
|248> 1      1.115000000    5.175700000 2
|249> d 1
|250> 1      1.203000000   -1.816000000 2
|251> f 1
|252> 1      1.000000000    0.000000000 2
|253> end
|254> Mg>    2.00000000000   -2.10973412517   -4.22049352791   -2.14445912302
|255> NewECP
|256> N_core 0
|257> lmax f
|258> s 1
|259> 1      1.732000000   14.676000000 2
|260> p 1
|261> 1      1.115000000    5.175700000 2
|262> d 1
|263> 1      1.203000000   -1.816000000 2
|264> f 1
|265> 1      1.000000000    0.000000000 2
|266> end
|267> Mg>    2.00000000000   -4.22049352791   -2.10973412517   -2.14445912302
|268> NewECP
|269> N_core 0
|270> lmax f
|271> s 1
|272> 1      1.732000000   14.676000000 2
|273> p 1
|274> 1      1.115000000    5.175700000 2
|275> d 1
|276> 1      1.203000000   -1.816000000 2
|277> f 1
|278> 1      1.000000000    0.000000000 2
|279> end
|280> Mg>    2.00000000000   -2.11024676395    2.11024676395   -4.26789528527
|281> NewECP
|282> N_core 0
|283> lmax f
|284> s 1
|285> 1      1.732000000   14.676000000 2
|286> p 1
|287> 1      1.115000000    5.175700000 2
|288> d 1
|289> 1      1.203000000   -1.816000000 2
|290> f 1
|291> 1      1.000000000    0.000000000 2
|292> end
|293> Mg>    2.00000000000    2.11024676395    2.11024676395   -4.26789528527
|294> NewECP
|295> N_core 0
|296> lmax f
|297> s 1
|298> 1      1.732000000   14.676000000 2
|299> p 1
|300> 1      1.115000000    5.175700000 2
|301> d 1
|302> 1      1.203000000   -1.816000000 2
|303> f 1
|304> 1      1.000000000    0.000000000 2
|305> end
|306> Mg>    2.00000000000    2.11024676395   -2.11024676395   -4.26789528527
|307> NewECP
|308> N_core 0
|309> lmax f
|310> s 1
|311> 1      1.732000000   14.676000000 2
|312> p 1
|313> 1      1.115000000    5.175700000 2
|314> d 1
|315> 1      1.203000000   -1.816000000 2
|316> f 1
|317> 1      1.000000000    0.000000000 2
|318> end
|319> Mg>    2.00000000000   -2.11024676395   -2.11024676395   -4.26789528527
|320> NewECP
|321> N_core 0
|322> lmax f
|323> s 1
|324> 1      1.732000000   14.676000000 2
|325> p 1
|326> 1      1.115000000    5.175700000 2
|327> d 1
|328> 1      1.203000000   -1.816000000 2
|329> f 1
|330> 1      1.000000000    0.000000000 2
|331> end
|332> Mg>    2.00000000000   -4.22049352791    4.22049352791   -0.03992370948
|333> NewECP
|334> N_core 0
|335> lmax f
|336> s 1
|337> 1      1.732000000   14.676000000 2
|338> p 1
|339> 1      1.115000000    5.175700000 2
|340> d 1
|341> 1      1.203000000   -1.816000000 2
|342> f 1
|343> 1      1.000000000    0.000000000 2
|344> end
|345> Mg>    2.00000000000    4.22049352791    4.22049352791   -0.03992370948
|346> NewECP
|347> N_core 0
|348> lmax f
|349> s 1
|350> 1      1.732000000   14.676000000 2
|351> p 1
|352> 1      1.115000000    5.175700000 2
|353> d 1
|354> 1      1.203000000   -1.816000000 2
|355> f 1
|356> 1      1.000000000    0.000000000 2
|357> end
|358> Mg>    2.00000000000    4.22049352791   -4.22049352791   -0.03992370948
|359> NewECP
|360> N_core 0
|361> lmax f
|362> s 1
|363> 1      1.732000000   14.676000000 2
|364> p 1
|365> 1      1.115000000    5.175700000 2
|366> d 1
|367> 1      1.203000000   -1.816000000 2
|368> f 1
|369> 1      1.000000000    0.000000000 2
|370> end
|371> Mg>    2.00000000000   -4.22049352791   -4.22049352791   -0.03992370948
|372> NewECP
|373> N_core 0
|374> lmax f
|375> s 1
|376> 1      1.732000000   14.676000000 2
|377> p 1
|378> 1      1.115000000    5.175700000 2
|379> d 1
|380> 1      1.203000000   -1.816000000 2
|381> f 1
|382> 1      1.000000000    0.000000000 2
|383> end
|384> Mg>    2.00000000000   -4.22049352791    0.00000000000   -4.26789528527
|385> NewECP
|386> N_core 0
|387> lmax f
|388> s 1
|389> 1      1.732000000   14.676000000 2
|390> p 1
|391> 1      1.115000000    5.175700000 2
|392> d 1
|393> 1      1.203000000   -1.816000000 2
|394> f 1
|395> 1      1.000000000    0.000000000 2
|396> end
|397> Mg>    2.00000000000    0.00000000000    4.22049352791   -4.26789528527
|398> NewECP
|399> N_core 0
|400> lmax f
|401> s 1
|402> 1      1.732000000   14.676000000 2
|403> p 1
|404> 1      1.115000000    5.175700000 2
|405> d 1
|406> 1      1.203000000   -1.816000000 2
|407> f 1
|408> 1      1.000000000    0.000000000 2
|409> end
|410> Mg>    2.00000000000    4.22049352791    0.00000000000   -4.26789528527
|411> NewECP
|412> N_core 0
|413> lmax f
|414> s 1
|415> 1      1.732000000   14.676000000 2
|416> p 1
|417> 1      1.115000000    5.175700000 2
|418> d 1
|419> 1      1.203000000   -1.816000000 2
|420> f 1
|421> 1      1.000000000    0.000000000 2
|422> end
|423> Mg>    2.00000000000    0.00000000000   -4.22049352791   -4.26789528527
|424> NewECP
|425> N_core 0
|426> lmax f
|427> s 1
|428> 1      1.732000000   14.676000000 2
|429> p 1
|430> 1      1.115000000    5.175700000 2
|431> d 1
|432> 1      1.203000000   -1.816000000 2
|433> f 1
|434> 1      1.000000000    0.000000000 2
|435> end
|436> Mg>    2.00000000000   -6.32954443328    2.11144262254   -0.04367284424
|437> NewECP
|438> N_core 0
|439> lmax f
|440> s 1
|441> 1      1.732000000   14.676000000 2
|442> p 1
|443> 1      1.115000000    5.175700000 2
|444> d 1
|445> 1      1.203000000   -1.816000000 2
|446> f 1
|447> 1      1.000000000    0.000000000 2
|448> end
|449> Mg>    2.00000000000   -2.11144262254    6.32954443328   -0.04367284424
|450> NewECP
|451> N_core 0
|452> lmax f
|453> s 1
|454> 1      1.732000000   14.676000000 2
|455> p 1
|456> 1      1.115000000    5.175700000 2
|457> d 1
|458> 1      1.203000000   -1.816000000 2
|459> f 1
|460> 1      1.000000000    0.000000000 2
|461> end
|462> Mg>    2.00000000000    2.11144262254    6.32954443328   -0.04367284424
|463> NewECP
|464> N_core 0
|465> lmax f
|466> s 1
|467> 1      1.732000000   14.676000000 2
|468> p 1
|469> 1      1.115000000    5.175700000 2
|470> d 1
|471> 1      1.203000000   -1.816000000 2
|472> f 1
|473> 1      1.000000000    0.000000000 2
|474> end
|475> Mg>    2.00000000000    6.32954443328    2.11144262254   -0.04367284424
|476> NewECP
|477> N_core 0
|478> lmax f
|479> s 1
|480> 1      1.732000000   14.676000000 2
|481> p 1
|482> 1      1.115000000    5.175700000 2
|483> d 1
|484> 1      1.203000000   -1.816000000 2
|485> f 1
|486> 1      1.000000000    0.000000000 2
|487> end
|488> Mg>    2.00000000000    6.32954443328   -2.11144262254   -0.04367284424
|489> NewECP
|490> N_core 0
|491> lmax f
|492> s 1
|493> 1      1.732000000   14.676000000 2
|494> p 1
|495> 1      1.115000000    5.175700000 2
|496> d 1
|497> 1      1.203000000   -1.816000000 2
|498> f 1
|499> 1      1.000000000    0.000000000 2
|500> end
|501> Mg>    2.00000000000    2.11144262254   -6.32954443328   -0.04367284424
|502> NewECP
|503> N_core 0
|504> lmax f
|505> s 1
|506> 1      1.732000000   14.676000000 2
|507> p 1
|508> 1      1.115000000    5.175700000 2
|509> d 1
|510> 1      1.203000000   -1.816000000 2
|511> f 1
|512> 1      1.000000000    0.000000000 2
|513> end
|514> Mg>    2.00000000000   -2.11144262254   -6.32954443328   -0.04367284424
|515> NewECP
|516> N_core 0
|517> lmax f
|518> s 1
|519> 1      1.732000000   14.676000000 2
|520> p 1
|521> 1      1.115000000    5.175700000 2
|522> d 1
|523> 1      1.203000000   -1.816000000 2
|524> f 1
|525> 1      1.000000000    0.000000000 2
|526> end
|527> Mg>    2.00000000000   -6.32954443328   -2.11144262254   -0.04367284424
|528> NewECP
|529> N_core 0
|530> lmax f
|531> s 1
|532> 1      1.732000000   14.676000000 2
|533> p 1
|534> 1      1.115000000    5.175700000 2
|535> d 1
|536> 1      1.203000000   -1.816000000 2
|537> f 1
|538> 1      1.000000000    0.000000000 2
|539> end
|540> Mg>    2.00000000000   -6.33393418427    0.00000000000   -2.14155206950
|541> NewECP
|542> N_core 0
|543> lmax f
|544> s 1
|545> 1      1.732000000   14.676000000 2
|546> p 1
|547> 1      1.115000000    5.175700000 2
|548> d 1
|549> 1      1.203000000   -1.816000000 2
|550> f 1
|551> 1      1.000000000    0.000000000 2
|552> end
|553> Mg>    2.00000000000    0.00000000000    6.33393418427   -2.14155206950
|554> NewECP
|555> N_core 0
|556> lmax f
|557> s 1
|558> 1      1.732000000   14.676000000 2
|559> p 1
|560> 1      1.115000000    5.175700000 2
|561> d 1
|562> 1      1.203000000   -1.816000000 2
|563> f 1
|564> 1      1.000000000    0.000000000 2
|565> end
|566> Mg>    2.00000000000    6.33393418427    0.00000000000   -2.14155206950
|567> NewECP
|568> N_core 0
|569> lmax f
|570> s 1
|571> 1      1.732000000   14.676000000 2
|572> p 1
|573> 1      1.115000000    5.175700000 2
|574> d 1
|575> 1      1.203000000   -1.816000000 2
|576> f 1
|577> 1      1.000000000    0.000000000 2
|578> end
|579> Mg>    2.00000000000    0.00000000000   -6.33393418427   -2.14155206950
|580> NewECP
|581> N_core 0
|582> lmax f
|583> s 1
|584> 1      1.732000000   14.676000000 2
|585> p 1
|586> 1      1.115000000    5.175700000 2
|587> d 1
|588> 1      1.203000000   -1.816000000 2
|589> f 1
|590> 1      1.000000000    0.000000000 2
|591> end
|592> Mg>    2.00000000000   -2.11024676395    0.00000000000   -6.37814204923
|593> NewECP
|594> N_core 0
|595> lmax f
|596> s 1
|597> 1      1.732000000   14.676000000 2
|598> p 1
|599> 1      1.115000000    5.175700000 2
|600> d 1
|601> 1      1.203000000   -1.816000000 2
|602> f 1
|603> 1      1.000000000    0.000000000 2
|604> end
|605> Mg>    2.00000000000    0.00000000000    2.11024676395   -6.37814204923
|606> NewECP
|607> N_core 0
|608> lmax f
|609> s 1
|610> 1      1.732000000   14.676000000 2
|611> p 1
|612> 1      1.115000000    5.175700000 2
|613> d 1
|614> 1      1.203000000   -1.816000000 2
|615> f 1
|616> 1      1.000000000    0.000000000 2
|617> end
|618> Mg>    2.00000000000    2.11024676395    0.00000000000   -6.37814204923
|619> NewECP
|620> N_core 0
|621> lmax f
|622> s 1
|623> 1      1.732000000   14.676000000 2
|624> p 1
|625> 1      1.115000000    5.175700000 2
|626> d 1
|627> 1      1.203000000   -1.816000000 2
|628> f 1
|629> 1      1.000000000    0.000000000 2
|630> end
|631> Mg>    2.00000000000    0.00000000000   -2.11024676395   -6.37814204923
|632> NewECP
|633> N_core 0
|634> lmax f
|635> s 1
|636> 1      1.732000000   14.676000000 2
|637> p 1
|638> 1      1.115000000    5.175700000 2
|639> d 1
|640> 1      1.203000000   -1.816000000 2
|641> f 1
|642> 1      1.000000000    0.000000000 2
|643> end
|644> Mg>    2.00000000000   -4.22049352791    4.22049352791   -4.26789528527
|645> NewECP
|646> N_core 0
|647> lmax f
|648> s 1
|649> 1      1.732000000   14.676000000 2
|650> p 1
|651> 1      1.115000000    5.175700000 2
|652> d 1
|653> 1      1.203000000   -1.816000000 2
|654> f 1
|655> 1      1.000000000    0.000000000 2
|656> end
|657> Mg>    2.00000000000    4.22049352791    4.22049352791   -4.26789528527
|658> NewECP
|659> N_core 0
|660> lmax f
|661> s 1
|662> 1      1.732000000   14.676000000 2
|663> p 1
|664> 1      1.115000000    5.175700000 2
|665> d 1
|666> 1      1.203000000   -1.816000000 2
|667> f 1
|668> 1      1.000000000    0.000000000 2
|669> end
|670> Mg>    2.00000000000    4.22049352791   -4.22049352791   -4.26789528527
|671> NewECP
|672> N_core 0
|673> lmax f
|674> s 1
|675> 1      1.732000000   14.676000000 2
|676> p 1
|677> 1      1.115000000    5.175700000 2
|678> d 1
|679> 1      1.203000000   -1.816000000 2
|680> f 1
|681> 1      1.000000000    0.000000000 2
|682> end
|683> Mg>    2.00000000000   -4.22049352791   -4.22049352791   -4.26789528527
|684> NewECP
|685> N_core 0
|686> lmax f
|687> s 1
|688> 1      1.732000000   14.676000000 2
|689> p 1
|690> 1      1.115000000    5.175700000 2
|691> d 1
|692> 1      1.203000000   -1.816000000 2
|693> f 1
|694> 1      1.000000000    0.000000000 2
|695> end
|696> Mg>    2.00000000000   -6.33125293065    4.22049352791   -2.14445912302
|697> NewECP
|698> N_core 0
|699> lmax f
|700> s 1
|701> 1      1.732000000   14.676000000 2
|702> p 1
|703> 1      1.115000000    5.175700000 2
|704> d 1
|705> 1      1.203000000   -1.816000000 2
|706> f 1
|707> 1      1.000000000    0.000000000 2
|708> end
|709> Mg>    2.00000000000   -4.22049352791    6.33125293065   -2.14445912302
|710> NewECP
|711> N_core 0
|712> lmax f
|713> s 1
|714> 1      1.732000000   14.676000000 2
|715> p 1
|716> 1      1.115000000    5.175700000 2
|717> d 1
|718> 1      1.203000000   -1.816000000 2
|719> f 1
|720> 1      1.000000000    0.000000000 2
|721> end
|722> Mg>    2.00000000000    4.22049352791    6.33125293065   -2.14445912302
|723> NewECP
|724> N_core 0
|725> lmax f
|726> s 1
|727> 1      1.732000000   14.676000000 2
|728> p 1
|729> 1      1.115000000    5.175700000 2
|730> d 1
|731> 1      1.203000000   -1.816000000 2
|732> f 1
|733> 1      1.000000000    0.000000000 2
|734> end
|735> Mg>    2.00000000000    6.33125293065    4.22049352791   -2.14445912302
|736> NewECP
|737> N_core 0
|738> lmax f
|739> s 1
|740> 1      1.732000000   14.676000000 2
|741> p 1
|742> 1      1.115000000    5.175700000 2
|743> d 1
|744> 1      1.203000000   -1.816000000 2
|745> f 1
|746> 1      1.000000000    0.000000000 2
|747> end
|748> Mg>    2.00000000000    6.33125293065   -4.22049352791   -2.14445912302
|749> NewECP
|750> N_core 0
|751> lmax f
|752> s 1
|753> 1      1.732000000   14.676000000 2
|754> p 1
|755> 1      1.115000000    5.175700000 2
|756> d 1
|757> 1      1.203000000   -1.816000000 2
|758> f 1
|759> 1      1.000000000    0.000000000 2
|760> end
|761> Mg>    2.00000000000    4.22049352791   -6.33125293065   -2.14445912302
|762> NewECP
|763> N_core 0
|764> lmax f
|765> s 1
|766> 1      1.732000000   14.676000000 2
|767> p 1
|768> 1      1.115000000    5.175700000 2
|769> d 1
|770> 1      1.203000000   -1.816000000 2
|771> f 1
|772> 1      1.000000000    0.000000000 2
|773> end
|774> Mg>    2.00000000000   -4.22049352791   -6.33125293065   -2.14445912302
|775> NewECP
|776> N_core 0
|777> lmax f
|778> s 1
|779> 1      1.732000000   14.676000000 2
|780> p 1
|781> 1      1.115000000    5.175700000 2
|782> d 1
|783> 1      1.203000000   -1.816000000 2
|784> f 1
|785> 1      1.000000000    0.000000000 2
|786> end
|787> Mg>    2.00000000000   -6.33125293065   -4.22049352791   -2.14445912302
|788> NewECP
|789> N_core 0
|790> lmax f
|791> s 1
|792> 1      1.732000000   14.676000000 2
|793> p 1
|794> 1      1.115000000    5.175700000 2
|795> d 1
|796> 1      1.203000000   -1.816000000 2
|797> f 1
|798> 1      1.000000000    0.000000000 2
|799> end
|800> Mg>    2.00000000000   -6.33074029186    2.11024676395   -4.26789528527
|801> NewECP
|802> N_core 0
|803> lmax f
|804> s 1
|805> 1      1.732000000   14.676000000 2
|806> p 1
|807> 1      1.115000000    5.175700000 2
|808> d 1
|809> 1      1.203000000   -1.816000000 2
|810> f 1
|811> 1      1.000000000    0.000000000 2
|812> end
|813> Mg>    2.00000000000   -2.11024676395    6.33074029186   -4.26789528527
|814> NewECP
|815> N_core 0
|816> lmax f
|817> s 1
|818> 1      1.732000000   14.676000000 2
|819> p 1
|820> 1      1.115000000    5.175700000 2
|821> d 1
|822> 1      1.203000000   -1.816000000 2
|823> f 1
|824> 1      1.000000000    0.000000000 2
|825> end
|826> Mg>    2.00000000000    2.11024676395    6.33074029186   -4.26789528527
|827> NewECP
|828> N_core 0
|829> lmax f
|830> s 1
|831> 1      1.732000000   14.676000000 2
|832> p 1
|833> 1      1.115000000    5.175700000 2
|834> d 1
|835> 1      1.203000000   -1.816000000 2
|836> f 1
|837> 1      1.000000000    0.000000000 2
|838> end
|839> Mg>    2.00000000000    6.33074029186    2.11024676395   -4.26789528527
|840> NewECP
|841> N_core 0
|842> lmax f
|843> s 1
|844> 1      1.732000000   14.676000000 2
|845> p 1
|846> 1      1.115000000    5.175700000 2
|847> d 1
|848> 1      1.203000000   -1.816000000 2
|849> f 1
|850> 1      1.000000000    0.000000000 2
|851> end
|852> Mg>    2.00000000000    6.33074029186   -2.11024676395   -4.26789528527
|853> NewECP
|854> N_core 0
|855> lmax f
|856> s 1
|857> 1      1.732000000   14.676000000 2
|858> p 1
|859> 1      1.115000000    5.175700000 2
|860> d 1
|861> 1      1.203000000   -1.816000000 2
|862> f 1
|863> 1      1.000000000    0.000000000 2
|864> end
|865> Mg>    2.00000000000    2.11024676395   -6.33074029186   -4.26789528527
|866> NewECP
|867> N_core 0
|868> lmax f
|869> s 1
|870> 1      1.732000000   14.676000000 2
|871> p 1
|872> 1      1.115000000    5.175700000 2
|873> d 1
|874> 1      1.203000000   -1.816000000 2
|875> f 1
|876> 1      1.000000000    0.000000000 2
|877> end
|878> Mg>    2.00000000000   -2.11024676395   -6.33074029186   -4.26789528527
|879> NewECP
|880> N_core 0
|881> lmax f
|882> s 1
|883> 1      1.732000000   14.676000000 2
|884> p 1
|885> 1      1.115000000    5.175700000 2
|886> d 1
|887> 1      1.203000000   -1.816000000 2
|888> f 1
|889> 1      1.000000000    0.000000000 2
|890> end
|891> Mg>    2.00000000000   -6.33074029186   -2.11024676395   -4.26789528527
|892> NewECP
|893> N_core 0
|894> lmax f
|895> s 1
|896> 1      1.732000000   14.676000000 2
|897> p 1
|898> 1      1.115000000    5.175700000 2
|899> d 1
|900> 1      1.203000000   -1.816000000 2
|901> f 1
|902> 1      1.000000000    0.000000000 2
|903> end
|904> Mg>    2.00000000000   -4.22049352791    2.11024676395   -6.37814204923
|905> NewECP
|906> N_core 0
|907> lmax f
|908> s 1
|909> 1      1.732000000   14.676000000 2
|910> p 1
|911> 1      1.115000000    5.175700000 2
|912> d 1
|913> 1      1.203000000   -1.816000000 2
|914> f 1
|915> 1      1.000000000    0.000000000 2
|916> end
|917> Mg>    2.00000000000   -2.11024676395    4.22049352791   -6.37814204923
|918> NewECP
|919> N_core 0
|920> lmax f
|921> s 1
|922> 1      1.732000000   14.676000000 2
|923> p 1
|924> 1      1.115000000    5.175700000 2
|925> d 1
|926> 1      1.203000000   -1.816000000 2
|927> f 1
|928> 1      1.000000000    0.000000000 2
|929> end
|930> Mg>    2.00000000000    2.11024676395    4.22049352791   -6.37814204923
|931> NewECP
|932> N_core 0
|933> lmax f
|934> s 1
|935> 1      1.732000000   14.676000000 2
|936> p 1
|937> 1      1.115000000    5.175700000 2
|938> d 1
|939> 1      1.203000000   -1.816000000 2
|940> f 1
|941> 1      1.000000000    0.000000000 2
|942> end
|943> Mg>    2.00000000000    4.22049352791    2.11024676395   -6.37814204923
|944> NewECP
|945> N_core 0
|946> lmax f
|947> s 1
|948> 1      1.732000000   14.676000000 2
|949> p 1
|950> 1      1.115000000    5.175700000 2
|951> d 1
|952> 1      1.203000000   -1.816000000 2
|953> f 1
|954> 1      1.000000000    0.000000000 2
|955> end
|956> Mg>    2.00000000000    4.22049352791   -2.11024676395   -6.37814204923
|957> NewECP
|958> N_core 0
|959> lmax f
|960> s 1
|961> 1      1.732000000   14.676000000 2
|962> p 1
|963> 1      1.115000000    5.175700000 2
|964> d 1
|965> 1      1.203000000   -1.816000000 2
|966> f 1
|967> 1      1.000000000    0.000000000 2
|968> end
|969> Mg>    2.00000000000    2.11024676395   -4.22049352791   -6.37814204923
|970> NewECP
|971> N_core 0
|972> lmax f
|973> s 1
|974> 1      1.732000000   14.676000000 2
|975> p 1
|976> 1      1.115000000    5.175700000 2
|977> d 1
|978> 1      1.203000000   -1.816000000 2
|979> f 1
|980> 1      1.000000000    0.000000000 2
|981> end
|982> Mg>    2.00000000000   -2.11024676395   -4.22049352791   -6.37814204923
|983> NewECP
|984> N_core 0
|985> lmax f
|986> s 1
|987> 1      1.732000000   14.676000000 2
|988> p 1
|989> 1      1.115000000    5.175700000 2
|990> d 1
|991> 1      1.203000000   -1.816000000 2
|992> f 1
|993> 1      1.000000000    0.000000000 2
|994> end
|995> Mg>    2.00000000000   -4.22049352791   -2.11024676395   -6.37814204923
|996> NewECP
|997> N_core 0
|998> lmax f
|999> s 1
|1000> 1      1.732000000   14.676000000 2
|1001> p 1
|1002> 1      1.115000000    5.175700000 2
|1003> d 1
|1004> 1      1.203000000   -1.816000000 2
|1005> f 1
|1006> 1      1.000000000    0.000000000 2
|1007> end
|1008> Mg>    2.00000000000   -8.44098705582    0.00000000000    0.00000000000
|1009> NewECP
|1010> N_core 0
|1011> lmax f
|1012> s 1
|1013> 1      1.732000000   14.676000000 2
|1014> p 1
|1015> 1      1.115000000    5.175700000 2
|1016> d 1
|1017> 1      1.203000000   -1.816000000 2
|1018> f 1
|1019> 1      1.000000000    0.000000000 2
|1020> end
|1021> Mg>    2.00000000000    0.00000000000    8.44098705582    0.00000000000
|1022> NewECP
|1023> N_core 0
|1024> lmax f
|1025> s 1
|1026> 1      1.732000000   14.676000000 2
|1027> p 1
|1028> 1      1.115000000    5.175700000 2
|1029> d 1
|1030> 1      1.203000000   -1.816000000 2
|1031> f 1
|1032> 1      1.000000000    0.000000000 2
|1033> end
|1034> Mg>    2.00000000000    8.44098705582    0.00000000000    0.00000000000
|1035> NewECP
|1036> N_core 0
|1037> lmax f
|1038> s 1
|1039> 1      1.732000000   14.676000000 2
|1040> p 1
|1041> 1      1.115000000    5.175700000 2
|1042> d 1
|1043> 1      1.203000000   -1.816000000 2
|1044> f 1
|1045> 1      1.000000000    0.000000000 2
|1046> end
|1047> Mg>    2.00000000000    0.00000000000   -8.44098705582    0.00000000000
|1048> NewECP
|1049> N_core 0
|1050> lmax f
|1051> s 1
|1052> 1      1.732000000   14.676000000 2
|1053> p 1
|1054> 1      1.115000000    5.175700000 2
|1055> d 1
|1056> 1      1.203000000   -1.816000000 2
|1057> f 1
|1058> 1      1.000000000    0.000000000 2
|1059> end
|1060> Mg>    2.00000000000   -6.32954443328    6.32954443328   -0.04367284424
|1061> NewECP
|1062> N_core 0
|1063> lmax f
|1064> s 1
|1065> 1      1.732000000   14.676000000 2
|1066> p 1
|1067> 1      1.115000000    5.175700000 2
|1068> d 1
|1069> 1      1.203000000   -1.816000000 2
|1070> f 1
|1071> 1      1.000000000    0.000000000 2
|1072> end
|1073> Mg>    2.00000000000    6.32954443328    6.32954443328   -0.04367284424
|1074> NewECP
|1075> N_core 0
|1076> lmax f
|1077> s 1
|1078> 1      1.732000000   14.676000000 2
|1079> p 1
|1080> 1      1.115000000    5.175700000 2
|1081> d 1
|1082> 1      1.203000000   -1.816000000 2
|1083> f 1
|1084> 1      1.000000000    0.000000000 2
|1085> end
|1086> Mg>    2.00000000000    6.32954443328   -6.32954443328   -0.04367284424
|1087> NewECP
|1088> N_core 0
|1089> lmax f
|1090> s 1
|1091> 1      1.732000000   14.676000000 2
|1092> p 1
|1093> 1      1.115000000    5.175700000 2
|1094> d 1
|1095> 1      1.203000000   -1.816000000 2
|1096> f 1
|1097> 1      1.000000000    0.000000000 2
|1098> end
|1099> Mg>    2.00000000000   -6.32954443328   -6.32954443328   -0.04367284424
|1100> NewECP
|1101> N_core 0
|1102> lmax f
|1103> s 1
|1104> 1      1.732000000   14.676000000 2
|1105> p 1
|1106> 1      1.115000000    5.175700000 2
|1107> d 1
|1108> 1      1.203000000   -1.816000000 2
|1109> f 1
|1110> 1      1.000000000    0.000000000 2
|1111> end
|1112> Mg>    2.00000000000   -8.44098705582    2.10705287155   -2.14155206950
|1113> NewECP
|1114> N_core 0
|1115> lmax f
|1116> s 1
|1117> 1      1.732000000   14.676000000 2
|1118> p 1
|1119> 1      1.115000000    5.175700000 2
|1120> d 1
|1121> 1      1.203000000   -1.816000000 2
|1122> f 1
|1123> 1      1.000000000    0.000000000 2
|1124> end
|1125> Mg>    2.00000000000   -2.10705287155    8.44098705582   -2.14155206950
|1126> NewECP
|1127> N_core 0
|1128> lmax f
|1129> s 1
|1130> 1      1.732000000   14.676000000 2
|1131> p 1
|1132> 1      1.115000000    5.175700000 2
|1133> d 1
|1134> 1      1.203000000   -1.816000000 2
|1135> f 1
|1136> 1      1.000000000    0.000000000 2
|1137> end
|1138> Mg>    2.00000000000    2.10705287155    8.44098705582   -2.14155206950
|1139> NewECP
|1140> N_core 0
|1141> lmax f
|1142> s 1
|1143> 1      1.732000000   14.676000000 2
|1144> p 1
|1145> 1      1.115000000    5.175700000 2
|1146> d 1
|1147> 1      1.203000000   -1.816000000 2
|1148> f 1
|1149> 1      1.000000000    0.000000000 2
|1150> end
|1151> Mg>    2.00000000000    8.44098705582    2.10705287155   -2.14155206950
|1152> NewECP
|1153> N_core 0
|1154> lmax f
|1155> s 1
|1156> 1      1.732000000   14.676000000 2
|1157> p 1
|1158> 1      1.115000000    5.175700000 2
|1159> d 1
|1160> 1      1.203000000   -1.816000000 2
|1161> f 1
|1162> 1      1.000000000    0.000000000 2
|1163> end
|1164> Mg>    2.00000000000    8.44098705582   -2.10705287155   -2.14155206950
|1165> NewECP
|1166> N_core 0
|1167> lmax f
|1168> s 1
|1169> 1      1.732000000   14.676000000 2
|1170> p 1
|1171> 1      1.115000000    5.175700000 2
|1172> d 1
|1173> 1      1.203000000   -1.816000000 2
|1174> f 1
|1175> 1      1.000000000    0.000000000 2
|1176> end
|1177> Mg>    2.00000000000    2.10705287155   -8.44098705582   -2.14155206950
|1178> NewECP
|1179> N_core 0
|1180> lmax f
|1181> s 1
|1182> 1      1.732000000   14.676000000 2
|1183> p 1
|1184> 1      1.115000000    5.175700000 2
|1185> d 1
|1186> 1      1.203000000   -1.816000000 2
|1187> f 1
|1188> 1      1.000000000    0.000000000 2
|1189> end
|1190> Mg>    2.00000000000   -2.10705287155   -8.44098705582   -2.14155206950
|1191> NewECP
|1192> N_core 0
|1193> lmax f
|1194> s 1
|1195> 1      1.732000000   14.676000000 2
|1196> p 1
|1197> 1      1.115000000    5.175700000 2
|1198> d 1
|1199> 1      1.203000000   -1.816000000 2
|1200> f 1
|1201> 1      1.000000000    0.000000000 2
|1202> end
|1203> Mg>    2.00000000000   -8.44098705582   -2.10705287155   -2.14155206950
|1204> NewECP
|1205> N_core 0
|1206> lmax f
|1207> s 1
|1208> 1      1.732000000   14.676000000 2
|1209> p 1
|1210> 1      1.115000000    5.175700000 2
|1211> d 1
|1212> 1      1.203000000   -1.816000000 2
|1213> f 1
|1214> 1      1.000000000    0.000000000 2
|1215> end
|1216> Mg>    2.00000000000   -8.44098705582    4.22049352791   -0.04269731856
|1217> NewECP
|1218> N_core 0
|1219> lmax f
|1220> s 1
|1221> 1      1.732000000   14.676000000 2
|1222> p 1
|1223> 1      1.115000000    5.175700000 2
|1224> d 1
|1225> 1      1.203000000   -1.816000000 2
|1226> f 1
|1227> 1      1.000000000    0.000000000 2
|1228> end
|1229> Mg>    2.00000000000   -4.22049352791    8.44098705582   -0.04269731856
|1230> NewECP
|1231> N_core 0
|1232> lmax f
|1233> s 1
|1234> 1      1.732000000   14.676000000 2
|1235> p 1
|1236> 1      1.115000000    5.175700000 2
|1237> d 1
|1238> 1      1.203000000   -1.816000000 2
|1239> f 1
|1240> 1      1.000000000    0.000000000 2
|1241> end
|1242> Mg>    2.00000000000    4.22049352791    8.44098705582   -0.04269731856
|1243> NewECP
|1244> N_core 0
|1245> lmax f
|1246> s 1
|1247> 1      1.732000000   14.676000000 2
|1248> p 1
|1249> 1      1.115000000    5.175700000 2
|1250> d 1
|1251> 1      1.203000000   -1.816000000 2
|1252> f 1
|1253> 1      1.000000000    0.000000000 2
|1254> end
|1255> Mg>    2.00000000000    8.44098705582    4.22049352791   -0.04269731856
|1256> NewECP
|1257> N_core 0
|1258> lmax f
|1259> s 1
|1260> 1      1.732000000   14.676000000 2
|1261> p 1
|1262> 1      1.115000000    5.175700000 2
|1263> d 1
|1264> 1      1.203000000   -1.816000000 2
|1265> f 1
|1266> 1      1.000000000    0.000000000 2
|1267> end
|1268> Mg>    2.00000000000    8.44098705582   -4.22049352791   -0.04269731856
|1269> NewECP
|1270> N_core 0
|1271> lmax f
|1272> s 1
|1273> 1      1.732000000   14.676000000 2
|1274> p 1
|1275> 1      1.115000000    5.175700000 2
|1276> d 1
|1277> 1      1.203000000   -1.816000000 2
|1278> f 1
|1279> 1      1.000000000    0.000000000 2
|1280> end
|1281> Mg>    2.00000000000    4.22049352791   -8.44098705582   -0.04269731856
|1282> NewECP
|1283> N_core 0
|1284> lmax f
|1285> s 1
|1286> 1      1.732000000   14.676000000 2
|1287> p 1
|1288> 1      1.115000000    5.175700000 2
|1289> d 1
|1290> 1      1.203000000   -1.816000000 2
|1291> f 1
|1292> 1      1.000000000    0.000000000 2
|1293> end
|1294> Mg>    2.00000000000   -4.22049352791   -8.44098705582   -0.04269731856
|1295> NewECP
|1296> N_core 0
|1297> lmax f
|1298> s 1
|1299> 1      1.732000000   14.676000000 2
|1300> p 1
|1301> 1      1.115000000    5.175700000 2
|1302> d 1
|1303> 1      1.203000000   -1.816000000 2
|1304> f 1
|1305> 1      1.000000000    0.000000000 2
|1306> end
|1307> Mg>    2.00000000000   -8.44098705582   -4.22049352791   -0.04269731856
|1308> NewECP
|1309> N_core 0
|1310> lmax f
|1311> s 1
|1312> 1      1.732000000   14.676000000 2
|1313> p 1
|1314> 1      1.115000000    5.175700000 2
|1315> d 1
|1316> 1      1.203000000   -1.816000000 2
|1317> f 1
|1318> 1      1.000000000    0.000000000 2
|1319> end
|1320> end
|1321> end
|1322>  
|1323> 
|1324>                          ****END OF INPUT****
================================================================================

                       ****************************
                       * Single Point Calculation *
                       ****************************

---------------------------------
CARTESIAN COORDINATES (ANGSTROEM)
---------------------------------
  C      0.000000    0.000000    2.441022
  O      0.000000    0.000000    3.587842
  Mg     0.000000    0.000000    0.000000
  O     -2.120184    0.000000    0.005672
  O      0.000000    2.120184    0.005672
  O      2.120184    0.000000    0.005672
  O      0.000000   -2.120184    0.005672
  O      0.000000    0.000000   -2.141300
  Mg    -2.111443    2.111443   -0.043673
  Mg     2.111443    2.111443   -0.043673
  Mg     2.111443   -2.111443   -0.043673
  Mg    -2.111443   -2.111443   -0.043673
  O     -2.110705    2.110705   -2.149240
  O      2.110705    2.110705   -2.149240
  O      2.110705   -2.110705   -2.149240
  O     -2.110705   -2.110705   -2.149240
  O     -4.220494    2.112091    0.007728
  O     -2.112091    4.220494    0.007728
  O      2.112091    4.220494    0.007728
  O      4.220494    2.112091    0.007728
  O      4.220494   -2.112091    0.007728
  O      2.112091   -4.220494    0.007728
  O     -2.112091   -4.220494    0.007728
  O     -4.220494   -2.112091    0.007728
  Mg>   -2.107053    0.000000   -2.141552
  Mg>    0.000000    2.107053   -2.141552
  Mg>    2.107053    0.000000   -2.141552
  Mg>    0.000000   -2.107053   -2.141552
  Mg>   -4.220494    0.000000   -0.042697
  Mg>    0.000000    4.220494   -0.042697
  Mg>    4.220494    0.000000   -0.042697
  Mg>    0.000000   -4.220494   -0.042697
  Mg>    0.000000    0.000000   -4.267895
  Mg>   -4.220494    2.109734   -2.144459
  Mg>   -2.109734    4.220494   -2.144459
  Mg>    2.109734    4.220494   -2.144459
  Mg>    4.220494    2.109734   -2.144459
  Mg>    4.220494   -2.109734   -2.144459
  Mg>    2.109734   -4.220494   -2.144459
  Mg>   -2.109734   -4.220494   -2.144459
  Mg>   -4.220494   -2.109734   -2.144459
  Mg>   -2.110247    2.110247   -4.267895
  Mg>    2.110247    2.110247   -4.267895
  Mg>    2.110247   -2.110247   -4.267895
  Mg>   -2.110247   -2.110247   -4.267895
  Mg>   -4.220494    4.220494   -0.039924
  Mg>    4.220494    4.220494   -0.039924
  Mg>    4.220494   -4.220494   -0.039924
  Mg>   -4.220494   -4.220494   -0.039924
  Mg>   -4.220494    0.000000   -4.267895
  Mg>    0.000000    4.220494   -4.267895
  Mg>    4.220494    0.000000   -4.267895
  Mg>    0.000000   -4.220494   -4.267895
  Mg>   -6.329544    2.111443   -0.043673
  Mg>   -2.111443    6.329544   -0.043673
  Mg>    2.111443    6.329544   -0.043673
  Mg>    6.329544    2.111443   -0.043673
  Mg>    6.329544   -2.111443   -0.043673
  Mg>    2.111443   -6.329544   -0.043673
  Mg>   -2.111443   -6.329544   -0.043673
  Mg>   -6.329544   -2.111443   -0.043673
  Mg>   -6.333934    0.000000   -2.141552
  Mg>    0.000000    6.333934   -2.141552
  Mg>    6.333934    0.000000   -2.141552
  Mg>    0.000000   -6.333934   -2.141552
  Mg>   -2.110247    0.000000   -6.378142
  Mg>    0.000000    2.110247   -6.378142
  Mg>    2.110247    0.000000   -6.378142
  Mg>    0.000000   -2.110247   -6.378142
  Mg>   -4.220494    4.220494   -4.267895
  Mg>    4.220494    4.220494   -4.267895
  Mg>    4.220494   -4.220494   -4.267895
  Mg>   -4.220494   -4.220494   -4.267895
  Mg>   -6.331253    4.220494   -2.144459
  Mg>   -4.220494    6.331253   -2.144459
  Mg>    4.220494    6.331253   -2.144459
  Mg>    6.331253    4.220494   -2.144459
  Mg>    6.331253   -4.220494   -2.144459
  Mg>    4.220494   -6.331253   -2.144459
  Mg>   -4.220494   -6.331253   -2.144459
  Mg>   -6.331253   -4.220494   -2.144459
  Mg>   -6.330740    2.110247   -4.267895
  Mg>   -2.110247    6.330740   -4.267895
  Mg>    2.110247    6.330740   -4.267895
  Mg>    6.330740    2.110247   -4.267895
  Mg>    6.330740   -2.110247   -4.267895
  Mg>    2.110247   -6.330740   -4.267895
  Mg>   -2.110247   -6.330740   -4.267895
  Mg>   -6.330740   -2.110247   -4.267895
  Mg>   -4.220494    2.110247   -6.378142
  Mg>   -2.110247    4.220494   -6.378142
  Mg>    2.110247    4.220494   -6.378142
  Mg>    4.220494    2.110247   -6.378142
  Mg>    4.220494   -2.110247   -6.378142
  Mg>    2.110247   -4.220494   -6.378142
  Mg>   -2.110247   -4.220494   -6.378142
  Mg>   -4.220494   -2.110247   -6.378142
  Mg>   -8.440987    0.000000    0.000000
  Mg>    0.000000    8.440987    0.000000
  Mg>    8.440987    0.000000    0.000000
  Mg>    0.000000   -8.440987    0.000000
  Mg>   -6.329544    6.329544   -0.043673
  Mg>    6.329544    6.329544   -0.043673
  Mg>    6.329544   -6.329544   -0.043673
  Mg>   -6.329544   -6.329544   -0.043673
  Mg>   -8.440987    2.107053   -2.141552
  Mg>   -2.107053    8.440987   -2.141552
  Mg>    2.107053    8.440987   -2.141552
  Mg>    8.440987    2.107053   -2.141552
  Mg>    8.440987   -2.107053   -2.141552
  Mg>    2.107053   -8.440987   -2.141552
  Mg>   -2.107053   -8.440987   -2.141552
  Mg>   -8.440987   -2.107053   -2.141552
  Mg>   -8.440987    4.220494   -0.042697
  Mg>   -4.220494    8.440987   -0.042697
  Mg>    4.220494    8.440987   -0.042697
  Mg>    8.440987    4.220494   -0.042697
  Mg>    8.440987   -4.220494   -0.042697
  Mg>    4.220494   -8.440987   -0.042697
  Mg>   -4.220494   -8.440987   -0.042697
  Mg>   -8.440987   -4.220494   -0.042697

----------------------------
CARTESIAN COORDINATES (A.U.)
----------------------------
  NO LB      ZA    FRAG     MASS         X           Y           Z
   0 C     0.0000    0     0.000    0.000000    0.000000    4.612864
   1 O     0.0000    0     0.000    0.000000    0.000000    6.780039
   2 Mg   12.0000    0    24.305    0.000000    0.000000    0.000000
   3 O     8.0000    0    15.999   -4.006568    0.000000    0.010719
   4 O     8.0000    0    15.999    0.000000    4.006568    0.010719
   5 O     8.0000    0    15.999    4.006568    0.000000    0.010719
   6 O     8.0000    0    15.999    0.000000   -4.006568    0.010719
   7 O     8.0000    0    15.999    0.000000    0.000000   -4.046470
   8 Mg   12.0000    0    24.305   -3.990048    3.990048   -0.082530
   9 Mg   12.0000    0    24.305    3.990048    3.990048   -0.082530
  10 Mg   12.0000    0    24.305    3.990048   -3.990048   -0.082530
  11 Mg   12.0000    0    24.305   -3.990048   -3.990048   -0.082530
  12 O     8.0000    0    15.999   -3.988653    3.988653   -4.061475
  13 O     8.0000    0    15.999    3.988653    3.988653   -4.061475
  14 O     8.0000    0    15.999    3.988653   -3.988653   -4.061475
  15 O     8.0000    0    15.999   -3.988653   -3.988653   -4.061475
  16 O     8.0000    0    15.999   -7.975577    3.991274    0.014604
  17 O     8.0000    0    15.999   -3.991274    7.975577    0.014604
  18 O     8.0000    0    15.999    3.991274    7.975577    0.014604
  19 O     8.0000    0    15.999    7.975577    3.991274    0.014604
  20 O     8.0000    0    15.999    7.975577   -3.991274    0.014604
  21 O     8.0000    0    15.999    3.991274   -7.975577    0.014604
  22 O     8.0000    0    15.999   -3.991274   -7.975577    0.014604
  23 O     8.0000    0    15.999   -7.975577   -3.991274    0.014604
  24 Mg>   2.0000    0     0.000   -3.981753    0.000000   -4.046947
  25 Mg>   2.0000    0     0.000    0.000000    3.981753   -4.046947
  26 Mg>   2.0000    0     0.000    3.981753    0.000000   -4.046947
  27 Mg>   2.0000    0     0.000    0.000000   -3.981753   -4.046947
  28 Mg>   2.0000    0     0.000   -7.975577    0.000000   -0.080686
  29 Mg>   2.0000    0     0.000    0.000000    7.975577   -0.080686
  30 Mg>   2.0000    0     0.000    7.975577    0.000000   -0.080686
  31 Mg>   2.0000    0     0.000    0.000000   -7.975577   -0.080686
  32 Mg>   2.0000    0     0.000    0.000000    0.000000   -8.065153
  33 Mg>   2.0000    0     0.000   -7.975577    3.986820   -4.052440
  34 Mg>   2.0000    0     0.000   -3.986820    7.975577   -4.052440
  35 Mg>   2.0000    0     0.000    3.986820    7.975577   -4.052440
  36 Mg>   2.0000    0     0.000    7.975577    3.986820   -4.052440
  37 Mg>   2.0000    0     0.000    7.975577   -3.986820   -4.052440
  38 Mg>   2.0000    0     0.000    3.986820   -7.975577   -4.052440
  39 Mg>   2.0000    0     0.000   -3.986820   -7.975577   -4.052440
  40 Mg>   2.0000    0     0.000   -7.975577   -3.986820   -4.052440
  41 Mg>   2.0000    0     0.000   -3.987788    3.987788   -8.065153
  42 Mg>   2.0000    0     0.000    3.987788    3.987788   -8.065153
  43 Mg>   2.0000    0     0.000    3.987788   -3.987788   -8.065153
  44 Mg>   2.0000    0     0.000   -3.987788   -3.987788   -8.065153
  45 Mg>   2.0000    0     0.000   -7.975577    7.975577   -0.075445
  46 Mg>   2.0000    0     0.000    7.975577    7.975577   -0.075445
  47 Mg>   2.0000    0     0.000    7.975577   -7.975577   -0.075445
  48 Mg>   2.0000    0     0.000   -7.975577   -7.975577   -0.075445
  49 Mg>   2.0000    0     0.000   -7.975577    0.000000   -8.065153
  50 Mg>   2.0000    0     0.000    0.000000    7.975577   -8.065153
  51 Mg>   2.0000    0     0.000    7.975577    0.000000   -8.065153
  52 Mg>   2.0000    0     0.000    0.000000   -7.975577   -8.065153
  53 Mg>   2.0000    0     0.000  -11.961106    3.990048   -0.082530
  54 Mg>   2.0000    0     0.000   -3.990048   11.961106   -0.082530
  55 Mg>   2.0000    0     0.000    3.990048   11.961106   -0.082530
  56 Mg>   2.0000    0     0.000   11.961106    3.990048   -0.082530
  57 Mg>   2.0000    0     0.000   11.961106   -3.990048   -0.082530
  58 Mg>   2.0000    0     0.000    3.990048  -11.961106   -0.082530
  59 Mg>   2.0000    0     0.000   -3.990048  -11.961106   -0.082530
  60 Mg>   2.0000    0     0.000  -11.961106   -3.990048   -0.082530
  61 Mg>   2.0000    0     0.000  -11.969401    0.000000   -4.046947
  62 Mg>   2.0000    0     0.000    0.000000   11.969401   -4.046947
  63 Mg>   2.0000    0     0.000   11.969401    0.000000   -4.046947
  64 Mg>   2.0000    0     0.000    0.000000  -11.969401   -4.046947
  65 Mg>   2.0000    0     0.000   -3.987788    0.000000  -12.052942
  66 Mg>   2.0000    0     0.000    0.000000    3.987788  -12.052942
  67 Mg>   2.0000    0     0.000    3.987788    0.000000  -12.052942
  68 Mg>   2.0000    0     0.000    0.000000   -3.987788  -12.052942
  69 Mg>   2.0000    0     0.000   -7.975577    7.975577   -8.065153
  70 Mg>   2.0000    0     0.000    7.975577    7.975577   -8.065153
  71 Mg>   2.0000    0     0.000    7.975577   -7.975577   -8.065153
  72 Mg>   2.0000    0     0.000   -7.975577   -7.975577   -8.065153
  73 Mg>   2.0000    0     0.000  -11.964334    7.975577   -4.052440
  74 Mg>   2.0000    0     0.000   -7.975577   11.964334   -4.052440
  75 Mg>   2.0000    0     0.000    7.975577   11.964334   -4.052440
  76 Mg>   2.0000    0     0.000   11.964334    7.975577   -4.052440
  77 Mg>   2.0000    0     0.000   11.964334   -7.975577   -4.052440
  78 Mg>   2.0000    0     0.000    7.975577  -11.964334   -4.052440
  79 Mg>   2.0000    0     0.000   -7.975577  -11.964334   -4.052440
  80 Mg>   2.0000    0     0.000  -11.964334   -7.975577   -4.052440
  81 Mg>   2.0000    0     0.000  -11.963365    3.987788   -8.065153
  82 Mg>   2.0000    0     0.000   -3.987788   11.963365   -8.065153
  83 Mg>   2.0000    0     0.000    3.987788   11.963365   -8.065153
  84 Mg>   2.0000    0     0.000   11.963365    3.987788   -8.065153
  85 Mg>   2.0000    0     0.000   11.963365   -3.987788   -8.065153
  86 Mg>   2.0000    0     0.000    3.987788  -11.963365   -8.065153
  87 Mg>   2.0000    0     0.000   -3.987788  -11.963365   -8.065153
  88 Mg>   2.0000    0     0.000  -11.963365   -3.987788   -8.065153
  89 Mg>   2.0000    0     0.000   -7.975577    3.987788  -12.052942
  90 Mg>   2.0000    0     0.000   -3.987788    7.975577  -12.052942
  91 Mg>   2.0000    0     0.000    3.987788    7.975577  -12.052942
  92 Mg>   2.0000    0     0.000    7.975577    3.987788  -12.052942
  93 Mg>   2.0000    0     0.000    7.975577   -3.987788  -12.052942
  94 Mg>   2.0000    0     0.000    3.987788   -7.975577  -12.052942
  95 Mg>   2.0000    0     0.000   -3.987788   -7.975577  -12.052942
  96 Mg>   2.0000    0     0.000   -7.975577   -3.987788  -12.052942
  97 Mg>   2.0000    0     0.000  -15.951154    0.000000    0.000000
  98 Mg>   2.0000    0     0.000    0.000000   15.951154    0.000000
  99 Mg>   2.0000    0     0.000   15.951154    0.000000    0.000000
 100 Mg>   2.0000    0     0.000    0.000000  -15.951154    0.000000
 101 Mg>   2.0000    0     0.000  -11.961106   11.961106   -0.082530
 102 Mg>   2.0000    0     0.000   11.961106   11.961106   -0.082530
 103 Mg>   2.0000    0     0.000   11.961106  -11.961106   -0.082530
 104 Mg>   2.0000    0     0.000  -11.961106  -11.961106   -0.082530
 105 Mg>   2.0000    0     0.000  -15.951154    3.981753   -4.046947
 106 Mg>   2.0000    0     0.000   -3.981753   15.951154   -4.046947
 107 Mg>   2.0000    0     0.000    3.981753   15.951154   -4.046947
 108 Mg>   2.0000    0     0.000   15.951154    3.981753   -4.046947
 109 Mg>   2.0000    0     0.000   15.951154   -3.981753   -4.046947
 110 Mg>   2.0000    0     0.000    3.981753  -15.951154   -4.046947
 111 Mg>   2.0000    0     0.000   -3.981753  -15.951154   -4.046947
 112 Mg>   2.0000    0     0.000  -15.951154   -3.981753   -4.046947
 113 Mg>   2.0000    0     0.000  -15.951154    7.975577   -0.080686
 114 Mg>   2.0000    0     0.000   -7.975577   15.951154   -0.080686
 115 Mg>   2.0000    0     0.000    7.975577   15.951154   -0.080686
 116 Mg>   2.0000    0     0.000   15.951154    7.975577   -0.080686
 117 Mg>   2.0000    0     0.000   15.951154   -7.975577   -0.080686
 118 Mg>   2.0000    0     0.000    7.975577  -15.951154   -0.080686
 119 Mg>   2.0000    0     0.000   -7.975577  -15.951154   -0.080686
 120 Mg>   2.0000    0     0.000  -15.951154   -7.975577   -0.080686
> coreless ECP center with (optional) point charge

--------------------------------
INTERNAL COORDINATES (ANGSTROEM)
--------------------------------
 C      0   0   0     0.000000000000     0.00000000     0.00000000
 O      1   0   0     1.146819814660     0.00000000     0.00000000
 Mg     1   2   0     2.441022358370   179.99999915     0.00000000
 O      3   1   2     2.120191843798    89.84671800     0.00000000
 O      3   1   2     2.120191843798    89.84671800     0.00000000
 O      3   1   2     2.120191843798    89.84671800     0.00000000
 O      3   1   2     2.120191843798    89.84671800     0.00000000
 O      3   1   2     2.141299661230   179.99999852     0.00000000
 Mg     4   3   1     2.112037236193    89.75927407    91.33813376
 Mg     5   3   1     2.112037236193    89.75927407    91.33813376
 Mg     6   3   1     2.112037236193    89.75927407    91.33813376
 Mg     4   3   1     2.112037236193    89.75927407   268.66186624
 O      9   4   3     2.105567311124    91.31875951    89.83212722
 O     10   5   3     2.105567311124    91.31875951    89.83212722
 O     11   6   3     2.105567311124    91.31875951    89.83212722
 O     12   4   3     2.105567311124    91.31875951   270.16787278
 O      9   4   3     2.109677271876    89.74792452   181.24291387
 O      9   4   3     2.109677271876   177.25328254   264.52840758
 O     10   5   3     2.109677271876    89.74792452   181.24291387
 O     10   5   3     2.109677271876   177.25328254   264.52840758
 O     11   6   3     2.109677271876    89.74792452   181.24291387
 O     11   6   3     2.109677271876   177.25328254   264.52840758
 O     12   4   3     2.109677271876   177.25328254    95.47159242
 O     12   4   3     2.109677271876    89.74792452   178.75708613
 Mg>    8   3   4     2.107052886668    90.00686358     0.00000000
 Mg>    8   3   4     2.107052886668    90.00686358    90.00000000
 Mg>    8   3   4     2.107052886668    90.00686358   180.00000000
 Mg>    8   3   4     2.107052886668    90.00686358   270.00000000
 Mg>    4   3   1     2.100866163030   178.52744884   180.00000000
 Mg>    5   3   1     2.100866163030   178.52744884   180.00000000
 Mg>    6   3   1     2.100866163030   178.52744884   180.00000000
 Mg>    7   3   1     2.100866163030   178.52744884   180.00000000
 Mg>    8   3   4     2.126595624040   180.00000000     0.00000000
 Mg>   13   9   4     2.109794653183    89.85009240    89.73685551
 Mg>   13   9   4     2.109794653183    89.85009240   179.78965956
 Mg>   14  10   5     2.109794653183    89.85009240    89.73685551
 Mg>   14  10   5     2.109794653183    89.85009240   179.78965956
 Mg>   15  11   6     2.109794653183    89.85009240    89.73685551
 Mg>   15  11   6     2.109794653183    89.85009240   179.78965956
 Mg>   16  12   4     2.109794653183    89.85009240   180.21034044
 Mg>   16  12   4     2.109794653183    89.85009240   270.26314449
 Mg>   13   9   4     2.118655487550   179.98910219   134.76325753
 Mg>   14  10   5     2.118655487550   179.98910219   134.76325753
 Mg>   15  11   6     2.118655487550   179.98910219   134.76325753
 Mg>   16  12   4     2.118655487550   179.98910219   225.23674247
 Mg>   17   9   4     2.108940547344    89.98607312   179.96173264
 Mg>   19  10   5     2.108940547344    89.98607312   179.96173264
 Mg>   21  11   6     2.108940547344    89.98607312   179.96173264
 Mg>   23  12  16     2.108940547344    89.98607312   271.27467433
 Mg>   42  13   9     2.984339593539    90.00000000   270.00000000
 Mg>   42  13   9     2.984339593539    90.00000000    90.00000000
 Mg>   43  14  10     2.984339593539    90.00000000    90.00000000
 Mg>   44  15  11     2.984339593539    90.00000000    90.00000000
 Mg>   17   9   4     2.109677271876   177.20755503   269.39032908
 Mg>   18   9  13     2.109677271876   177.20755503   359.29672922
 Mg>   19  10   5     2.109677271876   177.20755503   269.39032908
 Mg>   20  10  14     2.109677271876   177.20755503   359.29672922
 Mg>   21  11   6     2.109677271876   177.20755503   269.39032908
 Mg>   22  11  15     2.109677271876   177.20755503   359.29672922
 Mg>   23  12  16     2.109677271876   177.20755503     0.70327078
 Mg>   24  12   4     2.109677271876   177.20755503    90.60967092
 Mg>   54  17  46     2.976458711619    91.08095453   133.90002287
 Mg>   55  18  46     2.976458711619    91.08095453   226.09997713
 Mg>   57  20  47     2.976458711619    91.08095453   226.09997713
 Mg>   59  22  48     2.976458711619    91.08095453   226.09997713
 Mg>   33   8  25     2.984339593539   135.00000000     0.00000000
 Mg>   66  33   8     2.984339593532    60.00000000   125.26438968
 Mg>   67  66  33     2.984339593532    90.00000000    54.73561032
 Mg>   66  33   8     2.984339593532    60.00000000   234.73561032
 Mg>   42  13   9     2.984339593546    89.98249322     0.00000000
 Mg>   43  14  10     2.984339593546    89.98249322     0.00000000
 Mg>   44  15  11     2.984339593546    89.98249322     0.00000000
 Mg>   45  16  12     2.984339593546    89.98249322     0.00000000
 Mg>   54  17  46     2.976810647239    91.00560459    43.58389600
 Mg>   55  18  46     2.976810647239    91.00560459   316.41610400
 Mg>   56  19  47     2.976810647239    91.00560459    43.58389600
 Mg>   57  20  47     2.976810647239    91.00560459   316.41610400
 Mg>   58  21  48     2.976810647239    91.00560459    43.58389600
 Mg>   59  22  48     2.976810647239    91.00560459   316.41610400
 Mg>   60  23  49     2.976810647239    91.00560459    43.58389600
 Mg>   61  24  49     2.976810647239    91.00560459   316.41610400
 Mg>   50  42  13     2.984339593532    90.00000000    89.98249322
 Mg>   51  42  13     2.984339593532    90.00000000   270.01750678
 Mg>   51  42  13     2.984339593532   179.99999829     0.00000000
 Mg>   52  43  14     2.984339593532    90.00000000   270.01750678
 Mg>   52  43  14     2.984339593532   179.99999829     0.00000000
 Mg>   53  44  15     2.984339593532    90.00000000   270.01750678
 Mg>   53  44  15     2.984339593532   179.99999829     0.00000000
 Mg>   50  42  13     2.984339593532   179.99999829     0.00000000
 Mg>   82  50  42     2.984339593539    60.00000000    54.73561032
 Mg>   83  51  42     2.984339593539    60.00000000   305.26438968
 Mg>   84  51  83     2.984339593539    60.00000000   234.73561032
 Mg>   85  52  43     2.984339593539    60.00000000   305.26438968
 Mg>   86  52  85     2.984339593539    60.00000000   234.73561032
 Mg>   87  53  44     2.984339593539    60.00000000   305.26438968
 Mg>   88  53  87     2.984339593539    60.00000000   234.73561032
 Mg>   89  50  82     2.984339593539    60.00000000   125.26438968
 Mg>   54  17  46     2.986350149243   134.96562062   181.28543959
 Mg>   55  18  46     2.986350149243   134.96562062   178.71456041
 Mg>   57  20  47     2.986350149243   134.96562062   178.71456041
 Mg>   59  22  48     2.986350149243   134.96562062   178.71456041
 Mg>   74  54  17     2.976810647239    90.22494349   271.03469132
 Mg>   76  56  19     2.976810647239    90.22494349   271.03469132
 Mg>   78  58  21     2.976810647239    90.22494349   271.03469132
 Mg>   80  60  23     2.976810647239    90.22494349   271.03469132
 Mg>   54  17  46     2.976458711619   136.58069988    88.80999107
 Mg>   55  18  46     2.976458711619   136.58069988   271.19000893
 Mg>   56  19  47     2.976458711619   136.58069988    88.80999107
 Mg>   57  20  47     2.976458711619   136.58069988   271.19000893
 Mg>   58  21  48     2.976458711619   136.58069988    88.80999107
 Mg>   59  22  48     2.976458711619   136.58069988   271.19000893
 Mg>   60  23  49     2.976458711619   136.58069988    88.80999107
 Mg>   61  24  49     2.976458711619   136.58069988   271.19000893
 Mg>   74  54  17     2.977982666436    60.15434647   216.20586081
 Mg>   75  55  18     2.977982666436    60.15434647   143.79413919
 Mg>   76  56  19     2.977982666436    60.15434647   216.20586081
 Mg>   77  57  20     2.977982666436    60.15434647   143.79413919
 Mg>   78  58  21     2.977982666436    60.15434647   216.20586081
 Mg>   79  59  22     2.977982666436    60.15434647   143.79413919
 Mg>   80  60  23     2.977982666436    60.15434647   216.20586081
 Mg>   81  61  24     2.977982666436    60.15434647   143.79413919

---------------------------
INTERNAL COORDINATES (A.U.)
---------------------------
 C      0   0   0     0.000000000000     0.00000000     0.00000000
 O      1   0   0     2.167175374662     0.00000000     0.00000000
 Mg     1   2   0     4.612863744098   179.99999915     0.00000000
 O      3   1   2     4.006581936152    89.84671800     0.00000000
 O      3   1   2     4.006581936152    89.84671800     0.00000000
 O      3   1   2     4.006581936152    89.84671800     0.00000000
 O      3   1   2     4.006581936152    89.84671800     0.00000000
 O      3   1   2     4.046469930383   179.99999852     0.00000000
 Mg     4   3   1     3.991171961049    89.75927407    91.33813376
 Mg     5   3   1     3.991171961049    89.75927407    91.33813376
 Mg     6   3   1     3.991171961049    89.75927407    91.33813376
 Mg     4   3   1     3.991171961049    89.75927407   268.66186624
 O      9   4   3     3.978945574562    91.31875951    89.83212722
 O     10   5   3     3.978945574562    91.31875951    89.83212722
 O     11   6   3     3.978945574562    91.31875951    89.83212722
 O     12   4   3     3.978945574562    91.31875951   270.16787278
 O      9   4   3     3.986712274803    89.74792452   181.24291387
 O      9   4   3     3.986712274803   177.25328254   264.52840758
 O     10   5   3     3.986712274803    89.74792452   181.24291387
 O     10   5   3     3.986712274803   177.25328254   264.52840758
 O     11   6   3     3.986712274803    89.74792452   181.24291387
 O     11   6   3     3.986712274803   177.25328254   264.52840758
 O     12   4   3     3.986712274803   177.25328254    95.47159242
 O     12   4   3     3.986712274803    89.74792452   178.75708613
 Mg>    8   3   4     3.981752905491    90.00686358     0.00000000
 Mg>    8   3   4     3.981752905491    90.00686358    90.00000000
 Mg>    8   3   4     3.981752905491    90.00686358   180.00000000
 Mg>    8   3   4     3.981752905491    90.00686358   270.00000000
 Mg>    4   3   1     3.970061692148   178.52744884   180.00000000
 Mg>    5   3   1     3.970061692148   178.52744884   180.00000000
 Mg>    6   3   1     3.970061692148   178.52744884   180.00000000
 Mg>    7   3   1     3.970061692148   178.52744884   180.00000000
 Mg>    8   3   4     4.018683327031   180.00000000     0.00000000
 Mg>   13   9   4     3.986934093327    89.85009240    89.73685551
 Mg>   13   9   4     3.986934093327    89.85009240   179.78965956
 Mg>   14  10   5     3.986934093327    89.85009240    89.73685551
 Mg>   14  10   5     3.986934093327    89.85009240   179.78965956
 Mg>   15  11   6     3.986934093327    89.85009240    89.73685551
 Mg>   15  11   6     3.986934093327    89.85009240   179.78965956
 Mg>   16  12   4     3.986934093327    89.85009240   180.21034044
 Mg>   16  12   4     3.986934093327    89.85009240   270.26314449
 Mg>   13   9   4     4.003678643599   179.98910219   134.76325753
 Mg>   14  10   5     4.003678643599   179.98910219   134.76325753
 Mg>   15  11   6     4.003678643599   179.98910219   134.76325753
 Mg>   16  12   4     4.003678643599   179.98910219   225.23674247
 Mg>   17   9   4     3.985320067202    89.98607312   179.96173264
 Mg>   19  10   5     3.985320067202    89.98607312   179.96173264
 Mg>   21  11   6     3.985320067202    89.98607312   179.96173264
 Mg>   23  12  16     3.985320067202    89.98607312   271.27467433
 Mg>   42  13   9     5.639584522407    90.00000000   270.00000000
 Mg>   42  13   9     5.639584522407    90.00000000    90.00000000
 Mg>   43  14  10     5.639584522407    90.00000000    90.00000000
 Mg>   44  15  11     5.639584522407    90.00000000    90.00000000
 Mg>   17   9   4     3.986712274803   177.20755503   269.39032908
 Mg>   18   9  13     3.986712274803   177.20755503   359.29672922
 Mg>   19  10   5     3.986712274803   177.20755503   269.39032908
 Mg>   20  10  14     3.986712274803   177.20755503   359.29672922
 Mg>   21  11   6     3.986712274803   177.20755503   269.39032908
 Mg>   22  11  15     3.986712274803   177.20755503   359.29672922
 Mg>   23  12  16     3.986712274803   177.20755503     0.70327078
 Mg>   24  12   4     3.986712274803   177.20755503    90.60967092
 Mg>   54  17  46     5.624691813883    91.08095453   133.90002287
 Mg>   55  18  46     5.624691813883    91.08095453   226.09997713
 Mg>   57  20  47     5.624691813883    91.08095453   226.09997713
 Mg>   59  22  48     5.624691813883    91.08095453   226.09997713
 Mg>   33   8  25     5.639584522407   135.00000000     0.00000000
 Mg>   66  33   8     5.639584522393    60.00000000   125.26438968
 Mg>   67  66  33     5.639584522393    90.00000000    54.73561032
 Mg>   66  33   8     5.639584522393    60.00000000   234.73561032
 Mg>   42  13   9     5.639584522420    89.98249322     0.00000000
 Mg>   43  14  10     5.639584522420    89.98249322     0.00000000
 Mg>   44  15  11     5.639584522420    89.98249322     0.00000000
 Mg>   45  16  12     5.639584522420    89.98249322     0.00000000
 Mg>   54  17  46     5.625356875823    91.00560459    43.58389600
 Mg>   55  18  46     5.625356875823    91.00560459   316.41610400
 Mg>   56  19  47     5.625356875823    91.00560459    43.58389600
 Mg>   57  20  47     5.625356875823    91.00560459   316.41610400
 Mg>   58  21  48     5.625356875823    91.00560459    43.58389600
 Mg>   59  22  48     5.625356875823    91.00560459   316.41610400
 Mg>   60  23  49     5.625356875823    91.00560459    43.58389600
 Mg>   61  24  49     5.625356875823    91.00560459   316.41610400
 Mg>   50  42  13     5.639584522393    90.00000000    89.98249322
 Mg>   51  42  13     5.639584522393    90.00000000   270.01750678
 Mg>   51  42  13     5.639584522393   179.99999829     0.00000000
[...]
 76 Q      0.0000     2.0000     2.0000     0.0000     0.0000     0.0000
 77 Q      0.0000     2.0000     2.0000     0.0000     0.0000     0.0000
 78 Q      0.0000     2.0000     2.0000     0.0000     0.0000     0.0000
 79 Q      0.0000     2.0000     2.0000     0.0000     0.0000     0.0000
 80 Q      0.0000     2.0000     2.0000     0.0000     0.0000     0.0000
 81 Q      0.0000     2.0000     2.0000     0.0000     0.0000     0.0000
 82 Q      0.0000     2.0000     2.0000     0.0000     0.0000     0.0000
 83 Q      0.0000     2.0000     2.0000     0.0000     0.0000     0.0000
 84 Q      0.0000     2.0000     2.0000     0.0000     0.0000     0.0000
 85 Q      0.0000     2.0000     2.0000     0.0000     0.0000     0.0000
 86 Q      0.0000     2.0000     2.0000     0.0000     0.0000     0.0000
 87 Q      0.0000     2.0000     2.0000     0.0000     0.0000     0.0000
 88 Q      0.0000     2.0000     2.0000     0.0000     0.0000     0.0000
 89 Q      0.0000     2.0000     2.0000     0.0000     0.0000     0.0000
 90 Q      0.0000     2.0000     2.0000     0.0000     0.0000     0.0000
 91 Q      0.0000     2.0000     2.0000     0.0000     0.0000     0.0000
 92 Q      0.0000     2.0000     2.0000     0.0000     0.0000     0.0000
 93 Q      0.0000     2.0000     2.0000     0.0000     0.0000     0.0000
 94 Q      0.0000     2.0000     2.0000     0.0000     0.0000     0.0000
 95 Q      0.0000     2.0000     2.0000     0.0000     0.0000     0.0000
 96 Q      0.0000     2.0000     2.0000     0.0000     0.0000     0.0000
 97 Q      0.0000     2.0000     2.0000     0.0000     0.0000     0.0000
 98 Q      0.0000     2.0000     2.0000     0.0000     0.0000     0.0000
 99 Q      0.0000     2.0000     2.0000     0.0000     0.0000     0.0000
100 Q      0.0000     2.0000     2.0000     0.0000     0.0000     0.0000
101 Q      0.0000     2.0000     2.0000     0.0000     0.0000     0.0000
102 Q      0.0000     2.0000     2.0000     0.0000     0.0000     0.0000
103 Q      0.0000     2.0000     2.0000     0.0000     0.0000     0.0000
104 Q      0.0000     2.0000     2.0000     0.0000     0.0000     0.0000
105 Q      0.0000     2.0000     2.0000     0.0000     0.0000     0.0000
106 Q      0.0000     2.0000     2.0000     0.0000     0.0000     0.0000
107 Q      0.0000     2.0000     2.0000     0.0000     0.0000     0.0000
108 Q      0.0000     2.0000     2.0000     0.0000     0.0000     0.0000
109 Q      0.0000     2.0000     2.0000     0.0000     0.0000     0.0000
110 Q      0.0000     2.0000     2.0000     0.0000     0.0000     0.0000
111 Q      0.0000     2.0000     2.0000     0.0000     0.0000     0.0000
112 Q      0.0000     2.0000     2.0000     0.0000     0.0000     0.0000
113 Q      0.0000     2.0000     2.0000     0.0000     0.0000     0.0000
114 Q      0.0000     2.0000     2.0000     0.0000     0.0000     0.0000
115 Q      0.0000     2.0000     2.0000     0.0000     0.0000     0.0000
116 Q      0.0000     2.0000     2.0000     0.0000     0.0000     0.0000
117 Q      0.0000     2.0000     2.0000     0.0000     0.0000     0.0000
118 Q      0.0000     2.0000     2.0000     0.0000     0.0000     0.0000
119 Q      0.0000     2.0000     2.0000     0.0000     0.0000     0.0000
120 Q      0.0000     2.0000     2.0000     0.0000     0.0000     0.0000

  Mayer bond orders larger than 0.100000
B(  0-C , 12-O ) :   0.1147 B(  0-C , 13-O ) :   0.1149 B(  0-C , 14-O ) :   0.1154 
B(  0-C , 15-O ) :   0.1170 B(  1-O ,  2-Mg) :  -0.1111 B(  1-O ,  7-O ) :   0.1239 
B(  2-Mg,  3-O ) :  -5.6261 B(  2-Mg,  4-O ) :  -5.6620 B(  2-Mg,  5-O ) :  -5.6465 
B(  2-Mg,  6-O ) :  -5.6494 B(  2-Mg,  7-O ) : -14.6502 B(  2-Mg,  8-Mg) :  -4.2661 
B(  2-Mg,  9-Mg) :  -4.2672 B(  2-Mg, 10-Mg) :  -4.2651 B(  2-Mg, 11-Mg) :  -4.2724 
B(  2-Mg, 12-O ) :  -3.6079 B(  2-Mg, 13-O ) :  -3.6179 B(  2-Mg, 14-O ) :  -3.6139 
B(  2-Mg, 15-O ) :  -3.6189 B(  2-Mg, 16-O ) :  -0.1899 B(  2-Mg, 17-O ) :  -0.1941 
B(  2-Mg, 18-O ) :  -0.1972 B(  2-Mg, 19-O ) :  -0.1977 B(  2-Mg, 20-O ) :  -0.1957 
B(  2-Mg, 21-O ) :  -0.1959 B(  2-Mg, 22-O ) :  -0.1995 B(  2-Mg, 23-O ) :  -0.1939 
B(  3-O ,  4-O ) :   0.2662 B(  3-O ,  5-O ) :   1.7497 B(  3-O ,  6-O ) :   0.2604 
B(  3-O ,  7-O ) :   0.8496 B(  3-O ,  8-Mg) :  -0.2358 B(  3-O ,  9-Mg) :  -0.2000 
B(  3-O , 10-Mg) :  -0.2029 B(  3-O , 11-Mg) :  -0.2340 B(  3-O , 12-O ) :   0.1913 
B(  3-O , 15-O ) :   0.1918 B(  3-O , 16-O ) :  -0.3842 B(  3-O , 17-O ) :  -0.1316 
B(  3-O , 22-O ) :  -0.1286 B(  3-O , 23-O ) :  -0.3793 B(  4-O ,  5-O ) :   0.2630 
B(  4-O ,  6-O ) :   1.7586 B(  4-O ,  7-O ) :   0.8509 B(  4-O ,  8-Mg) :  -0.2331 
B(  4-O ,  9-Mg) :  -0.2353 B(  4-O , 10-Mg) :  -0.2044 B(  4-O , 11-Mg) :  -0.2001 
B(  4-O , 12-O ) :   0.1880 B(  4-O , 13-O ) :   0.1912 B(  4-O , 16-O ) :  -0.1308 
B(  4-O , 17-O ) :  -0.3877 B(  4-O , 18-O ) :  -0.3795 B(  4-O , 19-O ) :  -0.1314 
B(  5-O ,  6-O ) :   0.2633 B(  5-O ,  7-O ) :   0.8513 B(  5-O ,  8-Mg) :  -0.1958 
B(  5-O ,  9-Mg) :  -0.2305 B(  5-O , 10-Mg) :  -0.2383 B(  5-O , 11-Mg) :  -0.2000 
B(  5-O , 13-O ) :   0.1929 B(  5-O , 14-O ) :   0.1905 B(  5-O , 18-O ) :  -0.1324 
B(  5-O , 19-O ) :  -0.3762 B(  5-O , 20-O ) :  -0.3773 B(  5-O , 21-O ) :  -0.1326 
B(  6-O ,  7-O ) :   0.8501 B(  6-O ,  8-Mg) :  -0.2023 B(  6-O ,  9-Mg) :  -0.2067 
B(  6-O , 10-Mg) :  -0.2351 B(  6-O , 11-Mg) :  -0.2341 B(  6-O , 14-O ) :   0.1935 
B(  6-O , 15-O ) :   0.1915 B(  6-O , 20-O ) :  -0.1354 B(  6-O , 21-O ) :  -0.3739 
B(  6-O , 22-O ) :  -0.3824 B(  6-O , 23-O ) :  -0.1332 B(  7-O ,  8-Mg) :   1.2535 
B(  7-O ,  9-Mg) :   1.2529 B(  7-O , 10-Mg) :   1.2546 B(  7-O , 11-Mg) :   1.2561 
B(  7-O , 12-O ) :   0.5525 B(  7-O , 13-O ) :   0.5526 B(  7-O , 14-O ) :   0.5525 
B(  7-O , 15-O ) :   0.5529 B(  8-Mg,  9-Mg) :   0.7706 B(  8-Mg, 10-Mg) :  -0.1257 
B(  8-Mg, 11-Mg) :   0.7707 B(  8-Mg, 12-O ) :   0.5341 B(  8-Mg, 13-O ) :   0.3637 
B(  8-Mg, 15-O ) :   0.3647 B(  8-Mg, 18-O ) :   0.1294 B(  8-Mg, 23-O ) :   0.1281 
B(  9-Mg, 10-Mg) :   0.7700 B(  9-Mg, 11-Mg) :  -0.1316 B(  9-Mg, 12-O ) :   0.3632 
B(  9-Mg, 13-O ) :   0.5356 B(  9-Mg, 14-O ) :   0.3624 B(  9-Mg, 17-O ) :   0.1308 
B(  9-Mg, 20-O ) :   0.1317 B( 10-Mg, 11-Mg) :   0.7680 B( 10-Mg, 13-O ) :   0.3644 
B( 10-Mg, 14-O ) :   0.5339 B( 10-Mg, 15-O ) :   0.3645 B( 10-Mg, 19-O ) :   0.1302 
B( 10-Mg, 22-O ) :   0.1297 B( 11-Mg, 12-O ) :   0.3641 B( 11-Mg, 14-O ) :   0.3634 
B( 11-Mg, 15-O ) :   0.5288 B( 11-Mg, 16-O ) :   0.1303 B( 11-Mg, 21-O ) :   0.1317 
B( 16-O , 17-O ) :  -0.1814 B( 18-O , 19-O ) :  -0.1808 B( 20-O , 21-O ) :  -0.1815 
B( 22-O , 23-O ) :  -0.1805 

-------
TIMINGS
-------

Total SCF time: 0 days 0 hours 14 min 17 sec 

Total time                  ....     857.078 sec
Sum of individual times     ....     858.368 sec  (100.2%)

SCF preparation             ....       2.277 sec  (  0.3%)
Fock matrix formation       ....     820.763 sec  ( 95.8%)
  Startup                   ....       0.518 sec  (  0.1% of F)
  Split-RI-J                ....      51.961 sec  (  6.3% of F)
  Chain of spheres X        ....     767.359 sec  ( 93.5% of F)
Diagonalization             ....       0.000 sec  (  0.0%)
Density matrix formation    ....       2.365 sec  (  0.3%)
Total Energy calculation    ....       0.999 sec  (  0.1%)
Population analysis         ....       1.512 sec  (  0.2%)
Orbital Transformation      ....       4.139 sec  (  0.5%)
Orbital Orthonormalization  ....       0.000 sec  (  0.0%)
DIIS solution               ....      17.606 sec  (  2.1%)
SOSCF solution              ....       8.337 sec  (  1.0%)
Finished LeanSCF after 857.7 sec

Maximum memory used throughout the entire LEANSCF-calculation: 525.0 MB


           ************************************************************
           *        Program running with 8 parallel MPI-processes     *
           *              working on a common directory               *
           ************************************************************

------------------------------------------------------------------------------
                                ORCA  MP2 
------------------------------------------------------------------------------

NOTE: Switching SHARK to Segmented Contraction for MP2
      If that is not desired please turn off the PGCFlag in the input (%shark PGCFlag 0 end)
      Number of basis functions in BAS before restore: 2353
      Number of basis functions in BAS after restore : 2065
Freezing NCore=44 chemical core electrons

-------------
RI-MP2 ENERGY
-------------
Dimension of the orbital basis            ... 2065
Dimension of the AuxC basis               ... 5002
Memory devoted to MP2                     ... 25000 MB   
Data format for matrix containers         ... DOUBLE
Compression type for matrix containers    ... UNCOMPRESSED

-----------------------
SHARK RI TRANSFORMATION
-----------------------

Number of basis functions                ...   2065
Number of aux functions                  ...   5002
Number of operators                      ...      1
Generation of IJK                        ... NO
Generation of IAK                        ... YES
Generation of ABK                        ... NO
Orbital Range Operator  0:   22- 109 to  110-2064

Aux basis identifier                     ...   AUXC
Contraction scheme used                  ... SEGMENTED
Do orthogonalization                     ... YES
All operator combinations                ... NO
Transpose (ia|K)                         ... NO
Integral generator used                  ... LIBINT
Starting integral generation + trafo... 
Half trafo (segmented) done. Total time =101.0 sec. integrals= 30.2 sec trafo= 65.8 sec
Integral generation and half transformation done (101.0 sec)

Reading or making V^(-1/2)          ... done (  0.7 sec)
Sorting IAK integrals               ... done ( 36.6 sec)

SHARK RI integral transformation done. Total time =138.4 sec.

Opening buffers                              ... done

Starting loop over batches of integrals:

Operator 0  - window                       ... ( 22-109)x(110-2064)
Operator 0  - Memory available             ... 25000 MB
Operator 0  - Memory needed per MO         ...  74.6 MB
Operator 0  - Number of orbitals per batch ... 11
Operator 0  - Number of batches            ... 1

OPERATOR  0   PASS   0:  MOs    22 ...   32 +   33 ...   43 +   44 ...   54 +   55 ...   65
                            +   66 ...   76 +   77 ...   87 +   88 ...   98 +   99 ...  109
  Reading integrals       ... ok
  Internal MO  24
  Internal MO  27
  Internal MO  30
Time spent in pair loops =  1086.976 sec
Deleting buffers (Ka|jb) ...done

-----------------------------------------------
 RI-MP2 CORRELATION ENERGY:     -6.576427089 Eh
-----------------------------------------------


-------
TIMINGS
-------

Total time                : 1235.546 sec
Integral trafo            :  138.385 sec ( 11.2%)
I/O of integrals          :    0.488 sec (  0.0%)
K(i,j) operators          :   68.770 sec (  5.6%)
T(i,j) pair energies      :    3.142 sec (  0.3%)
V**(-1/2)                 :   10.184 sec (  0.8%)


---------------------------------------
MP2 TOTAL ENERGY:    -3439.736248398 Eh
---------------------------------------

Maximum memory used throughout the entire MP2-calculation: 1359.9 MB

-------------------------   --------------------
FINAL SINGLE POINT ENERGY     -3439.736248397871
-------------------------   --------------------



           ************************************************************
           *        Program running with 8 parallel MPI-processes     *
           *              working on a common directory               *
           ************************************************************

------------------------------------------------------------------------------
                              ORCA PROPERTY CALCULATIONS
------------------------------------------------------------------------------

GBWName                                 ... orca.gbw
Number of atoms                         ...    121
Number of basis functions               ...   2353
Max core memory                         ...  25000 MB

Electric properties:
Dipole moment                           ... YES
Quadrupole moment                       ...  NO
Static polarizability (Dipole/Dipole)   ...  NO
Static polarizability (Dipole/Quad.)    ...  NO
Static polarizability (Quad./Quad.)     ...  NO
Static polarizability (Velocity)        ...  NO

Atomic electric properties:
Dipole moment                           ...  NO
Quadrupole moment                       ...  NO
Static polarizability                   ...  NO

Choice of electric origin               ... Center of mass
Position of electric origin             ...    -0.000000     0.000000    -0.838931

General magnetic properties:
Magnetizability                         ...  NO

EPR properties:
g-Tensor (aka g-matrix)                 ...  NO
Zero-Field splitting spin-orbit         ...  NO
Zero-field splitting spin-spin          ...  NO
Hyperfine couplings                     ...  NO (   0 nuclei)
Quadrupole couplings                    ...  NO (   0 nuclei)
Contact density                         ...  NO (   0 nuclei)

NMR properties:
Chemical shifts                         ...  NO (   0 nuclei)
Spin-rotation constants                 ...  NO (   0 nuclei)
Spin-spin couplings                     ...  NO (   0 nuclei,    0 pairs)

Choice of magnetic origin               ... GIAO
Position of magnetic origin             ...     0.000000     0.000000     0.000000

Properties with geometric perturbations:
SCF Hessian                             ...  NO
IR spectrum                             ...  NO
VCD spectrum                            ...  NO
X-ray spectroscopy properties:
SCF XES/XAS/RIXS spectra                ...  NO


-------------
DIPOLE MOMENT
-------------

Method             : SCF
Type of density    : Electron Density
Multiplicity       :   1
Irrep              :   0
Energy             : -3433.1598213093479899 Eh
Relativity type    : 
Basis              : AO
                                X                 Y                 Z
Electronic contribution:      0.000003483       0.000011141      20.864617247
Nuclear contribution   :      0.000000000       0.000000000    -729.547856616
                        -----------------------------------------
Total Dipole Moment    :      0.000003483       0.000011141    -708.683239369
                        -----------------------------------------
Magnitude (a.u.)       :    708.683239369
Magnitude (Debye)      :   1801.329640462



--------------------
Rotational spectrum 
--------------------
 
Rotational constants in cm-1:             0.006536             0.006536             0.003684 
Rotational constants in MHz :           195.929510           195.929510           110.451769 

Dipole components along the rotational axes: 
x,y,z [a.u.] :    -0.000009     0.000007  -708.683239 
x,y,z [Debye]:    -0.000024     0.000017 -1801.329640 

 

Dipole moment calculation done in   0.2 sec 

Maximum memory used throughout the entire PROP-calculation: 351.7 MB

--------------------------------
SUGGESTED CITATIONS FOR THIS RUN
--------------------------------

Below you find a list of papers that are relevant to this ORCA run
We neither can nor want to force you to cite these papers, but we appreciate if you do
You receive ORCA, which is the product of decades of hard work by many enthusiastic individuals, for free
The only thing we kindly ask in return is that you cite our papers,
We deeply appreciate it, if you show your appreciation for ORCA by not just citing the generic ORCA reference.

Please note that relegating all ORCA citations to the supporting information does *not* help us.
SI sections are not indexed - citations you put there will not count into any citation statistics
But we need these citations in order to attract the funding resources that allow us to do what we are doing

Therefore, if you are a happy ORCA user, please consider citing a few of the papers listed below in the main body of your paper

In addition to the list printed below, the program has created the file orca.bibtex that contains the list in bibtex format
You can import this file easily into all common literature databanks and citation aid programs


List of essential papers. We consider these as the minimum necessary citations

  1. Neese,F.
     Software update: the ORCA program system, version 5.0
     WIRES Comput. Molec. Sci., 2022 12(1)e1606
     doi.org/10.1002/wcms.1606

List of papers to cite with high priority. The work reported in these papers was absolutely
necessary for this run to complete.
Our perspective: the developers of density functionals and basis sets usually get cited in chemistry papers
Good! But without the algorithms to do something with them, the functionals or basis sets would not do anything.
Hence, in our opinion, the algorithm design and method developments papers are equally worthy of getting cited

  1. Neese,F.
     An improvement of the resolution of the identity approximation for the formation of the Coulomb matrix
     J. Comp. Chem., 2003 24(14)1740-1747
     doi.org/10.1002/jcc.10318
  2. Neese,F.; Wennmohs,F.; Hansen,A.; Becker,U.
     Efficient, approximate and parallel Hartree-Fock and hybrid DFT calculations. A 'chain-of-spheres' algorithm for the Hartree-Fock exchange
     Chem. Phys., 2009 356(1-3)98-109
     doi.org/10.1016/j.chemphys.2008.10.036
  3. Kossmann,S.; Neese,F.
     Efficient Structure Optimization with Second-Order Many-Body Perturbation Theory: The RIJCOSX-MP2 Method
     J. Theo. Comp. Chem., 2010 6 2325-2338
     doi.org/10.1021/ct100199k
  4. Helmich-Paris,B.; de Souza,B.; Neese,F.; Izsák,R.
     An improved chain of spheres for exchange algorithm
     J. Chem. Phys., 2021 155 104109
     doi.org/doi: 10.1063/5.0058766.
  5. Neese,F.
     The SHARK Integral Generation and Digestion System
     J. Comp. Chem., 2022  1-16
     doi.org/10.1002/jcc.26942

List of suggested additional citations. These are papers that are important in the 'surrounding' of 
of this run, or papers that preceded the highly important papers. If you like your results we are grateful for a citation.

  1. Izsak,R.; Neese,F.
     An overlap fitted chain of spheres exchange method
     J. Chem. Phys., 2011 135 144105
     doi.org/10.1063/1.3646921
  2. Izsak,R.; Hansen,A.; Neese,F.
     The resolution of identity and chain of spheres approximations for the LPNO-CCSD singles Fock term
     Molec. Phys., 2012 110 2413-2417
     doi.org/10.1080/00268976.2012.687466
  3. Neese,F.
     The ORCA program system
     WIRES Comput. Molec. Sci., 2012 2(1)73-78
     doi.org/10.1002/wcms.81
  4. Izsak,R.; Neese,F.; Klopper,W.
     Robust fitting techniques in the chain of spheres approximation to the Fock exchange: The role of the complementary space
     J. Chem. Phys., 2013 139 
     doi.org/10.1063/1.4819264
  5. Neese,F.
     Software update: the ORCA program system, version 4.0
     WIRES Comput. Molec. Sci., 2018 8(1)1-6
     doi.org/10.1002/wcms.1327
  6. Neese,F.; Wennmohs,F.; Becker,U.; Riplinger,C.
     The ORCA quantum chemistry program package
     J. Chem. Phys., 2020 152 Art. No. L224108
     doi.org/10.1063/5.0004608

List of optional additional citations

  1. Neese,F.
     Approximate second-order SCF convergence for spin unrestricted wavefunctions
     Chem. Phys. Lett., 2000 325(1-3)93-98
     doi.org/10.1016/s0009-2614(00)00662-x

Timings for individual modules:

Sum of individual times          ...     2184.204 sec (=  36.403 min)
Startup calculation              ...       68.510 sec (=   1.142 min)   3.1 %
SCF iterations                   ...      865.892 sec (=  14.432 min)  39.6 %
Property calculations            ...        4.253 sec (=   0.071 min)   0.2 %
MP2 module                       ...     1245.549 sec (=  20.759 min)  57.0 %
                             ****ORCA TERMINATED NORMALLY****
TOTAL RUN TIME: 0 days 0 hours 36 minutes 28 seconds 173 msec
