 **********************************************************************
                          MRCC program system
 **********************************************************************

                              Written by
     Mihaly Kallay, Peter R. Nagy, David Mester, Laszlo Gyevi-Nagy,
        Jozsef Csoka, P. Bernat Szabo, Zoltan Rolik, Gyula Samu,
     Jozsef Csontos, Bence Hegely, Adam Ganyecz, Istvan Ladjanszki,
       Lorant Szegedy, Bence Ladoczki, Klara Petrov, Mate Farkas,
                    Pal D. Mezei, and Reka A. Horvath

        Department of Physical Chemistry and Materials Science
            Budapest University of Technology and Economics
                  Budapest P.O.Box 91, H-1521 Hungary

                              www.mrcc.hu

                     Release date: August 28, 2023

 ************************ 2024-11-25 16:08:47 *************************
 Executing minp...

 Reading input from MINP...

 Input file:

calc=LNO-CCSD(T)
scftype=rhf
verbosity=3
mem=200000MB
symm=off
unit=angs
scfiguess=small
scfmaxit=1000
scfalg=locfit1
bpedo=0.99999
ccmaxit=400
usedisk=0
ccsdalg=dfdirect
ccsdthreads=4
ccsdmkl=thr
ptthreads=4
lcorthr=tight
basis_sm=special
def2-SVP
def2-SVP
def2-SVP
def2-SVP
def2-SVP
def2-SVP
def2-SVP
def2-SVP
def2-SVP
def2-SVP
def2-SVP
def2-SVP
def2-SVP
def2-SVP
def2-SVP
def2-SVP
def2-SVP
def2-SVP
def2-SVP
def2-SVP
def2-SVP
def2-SVP
def2-SVP
def2-SVP
def2-SVP
def2-SVP
def2-SVP
def2-SVP
def2-SVP
def2-SVP
def2-SVP
def2-SVP
def2-SVP
def2-SVP
def2-SVP
def2-SVP
no-basis-set
no-basis-set
no-basis-set
no-basis-set
no-basis-set
no-basis-set
no-basis-set
no-basis-set
no-basis-set
no-basis-set
no-basis-set
no-basis-set
no-basis-set
no-basis-set
no-basis-set
no-basis-set
no-basis-set
no-basis-set
no-basis-set
no-basis-set
no-basis-set
no-basis-set
no-basis-set
no-basis-set
no-basis-set
no-basis-set
no-basis-set
no-basis-set
no-basis-set
no-basis-set
no-basis-set
no-basis-set
no-basis-set
no-basis-set
no-basis-set
no-basis-set
no-basis-set
no-basis-set
no-basis-set
no-basis-set
no-basis-set
no-basis-set
no-basis-set
no-basis-set
no-basis-set
no-basis-set
no-basis-set
no-basis-set
no-basis-set
no-basis-set
no-basis-set
no-basis-set
no-basis-set
no-basis-set
no-basis-set
no-basis-set
no-basis-set
no-basis-set
no-basis-set
no-basis-set
no-basis-set
no-basis-set
no-basis-set
no-basis-set
no-basis-set
no-basis-set
no-basis-set
no-basis-set
no-basis-set
no-basis-set
no-basis-set
no-basis-set
no-basis-set
no-basis-set
no-basis-set
no-basis-set
no-basis-set
no-basis-set
no-basis-set
no-basis-set
no-basis-set
no-basis-set
no-basis-set
no-basis-set
no-basis-set
no-basis-set
no-basis-set
no-basis-set
no-basis-set
no-basis-set
no-basis-set
no-basis-set
no-basis-set
no-basis-set
no-basis-set
no-basis-set
no-basis-set
no-basis-set
no-basis-set
no-basis-set
no-basis-set
no-basis-set
no-basis-set
no-basis-set
no-basis-set
no-basis-set
no-basis-set
no-basis-set
no-basis-set
no-basis-set
no-basis-set
no-basis-set
no-basis-set


basis=special
aug-cc-pVDZ
aug-cc-pVDZ
cc-pVDZ
aug-cc-pVDZ
aug-cc-pVDZ
aug-cc-pVDZ
aug-cc-pVDZ
aug-cc-pVDZ
cc-pVDZ
cc-pVDZ
cc-pVDZ
cc-pVDZ
aug-cc-pVDZ
aug-cc-pVDZ
aug-cc-pVDZ
aug-cc-pVDZ
cc-pVDZ
cc-pVDZ
cc-pVDZ
cc-pVDZ
aug-cc-pVDZ
aug-cc-pVDZ
aug-cc-pVDZ
aug-cc-pVDZ
aug-cc-pVDZ
aug-cc-pVDZ
aug-cc-pVDZ
aug-cc-pVDZ
aug-cc-pVDZ
aug-cc-pVDZ
aug-cc-pVDZ
aug-cc-pVDZ
aug-cc-pVDZ
aug-cc-pVDZ
aug-cc-pVDZ
aug-cc-pVDZ
no-basis-set
no-basis-set
no-basis-set
no-basis-set
no-basis-set
no-basis-set
no-basis-set
no-basis-set
no-basis-set
no-basis-set
no-basis-set
no-basis-set
no-basis-set
no-basis-set
no-basis-set
no-basis-set
no-basis-set
no-basis-set
no-basis-set
no-basis-set
no-basis-set
no-basis-set
no-basis-set
no-basis-set
no-basis-set
no-basis-set
no-basis-set
no-basis-set
no-basis-set
no-basis-set
no-basis-set
no-basis-set
no-basis-set
no-basis-set
no-basis-set
no-basis-set
no-basis-set
no-basis-set
no-basis-set
no-basis-set
no-basis-set
no-basis-set
no-basis-set
no-basis-set
no-basis-set
no-basis-set
no-basis-set
no-basis-set
no-basis-set
no-basis-set
no-basis-set
no-basis-set
no-basis-set
no-basis-set
no-basis-set
no-basis-set
no-basis-set
no-basis-set
no-basis-set
no-basis-set
no-basis-set
no-basis-set
no-basis-set
no-basis-set
no-basis-set
no-basis-set
no-basis-set
no-basis-set
no-basis-set
no-basis-set
no-basis-set
no-basis-set
no-basis-set
no-basis-set
no-basis-set
no-basis-set
no-basis-set
no-basis-set
no-basis-set
no-basis-set
no-basis-set
no-basis-set
no-basis-set
no-basis-set
no-basis-set
no-basis-set
no-basis-set
no-basis-set
no-basis-set
no-basis-set
no-basis-set
no-basis-set
no-basis-set
no-basis-set
no-basis-set
no-basis-set
no-basis-set
no-basis-set
no-basis-set
no-basis-set
no-basis-set
no-basis-set
no-basis-set
no-basis-set
no-basis-set
no-basis-set
no-basis-set
no-basis-set
no-basis-set
no-basis-set
no-basis-set
no-basis-set
no-basis-set


dfbasis_scf=special
def2-QZVPP-RI-JK
def2-QZVPP-RI-JK
def2-QZVPP-RI-JK
def2-QZVPP-RI-JK
def2-QZVPP-RI-JK
def2-QZVPP-RI-JK
def2-QZVPP-RI-JK
def2-QZVPP-RI-JK
def2-QZVPP-RI-JK
def2-QZVPP-RI-JK
def2-QZVPP-RI-JK
def2-QZVPP-RI-JK
def2-QZVPP-RI-JK
def2-QZVPP-RI-JK
def2-QZVPP-RI-JK
def2-QZVPP-RI-JK
def2-QZVPP-RI-JK
def2-QZVPP-RI-JK
def2-QZVPP-RI-JK
def2-QZVPP-RI-JK
def2-QZVPP-RI-JK
def2-QZVPP-RI-JK
def2-QZVPP-RI-JK
def2-QZVPP-RI-JK
def2-QZVPP-RI-JK
def2-QZVPP-RI-JK
def2-QZVPP-RI-JK
def2-QZVPP-RI-JK
def2-QZVPP-RI-JK
def2-QZVPP-RI-JK
def2-QZVPP-RI-JK
def2-QZVPP-RI-JK
def2-QZVPP-RI-JK
def2-QZVPP-RI-JK
def2-QZVPP-RI-JK
def2-QZVPP-RI-JK
no-basis-set
no-basis-set
no-basis-set
no-basis-set
no-basis-set
no-basis-set
no-basis-set
no-basis-set
no-basis-set
no-basis-set
no-basis-set
no-basis-set
no-basis-set
no-basis-set
no-basis-set
no-basis-set
no-basis-set
no-basis-set
no-basis-set
no-basis-set
no-basis-set
no-basis-set
no-basis-set
no-basis-set
no-basis-set
no-basis-set
no-basis-set
no-basis-set
no-basis-set
no-basis-set
no-basis-set
no-basis-set
no-basis-set
no-basis-set
no-basis-set
no-basis-set
no-basis-set
no-basis-set
no-basis-set
no-basis-set
no-basis-set
no-basis-set
no-basis-set
no-basis-set
no-basis-set
no-basis-set
no-basis-set
no-basis-set
no-basis-set
no-basis-set
no-basis-set
no-basis-set
no-basis-set
no-basis-set
no-basis-set
no-basis-set
no-basis-set
no-basis-set
no-basis-set
no-basis-set
no-basis-set
no-basis-set
no-basis-set
no-basis-set
no-basis-set
no-basis-set
no-basis-set
no-basis-set
no-basis-set
no-basis-set
no-basis-set
no-basis-set
no-basis-set
no-basis-set
no-basis-set
no-basis-set
no-basis-set
no-basis-set
no-basis-set
no-basis-set
no-basis-set
no-basis-set
no-basis-set
no-basis-set
no-basis-set
no-basis-set
no-basis-set
no-basis-set
no-basis-set
no-basis-set
no-basis-set
no-basis-set
no-basis-set
no-basis-set
no-basis-set
no-basis-set
no-basis-set
no-basis-set
no-basis-set
no-basis-set
no-basis-set
no-basis-set
no-basis-set
no-basis-set
no-basis-set
no-basis-set
no-basis-set
no-basis-set
no-basis-set
no-basis-set
no-basis-set
no-basis-set
no-basis-set


dfbasis_cor=special
aug-cc-pVDZ-RI
aug-cc-pVDZ-RI
cc-pVDZ-RI
aug-cc-pVDZ-RI
aug-cc-pVDZ-RI
aug-cc-pVDZ-RI
aug-cc-pVDZ-RI
aug-cc-pVDZ-RI
cc-pVDZ-RI
cc-pVDZ-RI
cc-pVDZ-RI
cc-pVDZ-RI
aug-cc-pVDZ-RI
aug-cc-pVDZ-RI
aug-cc-pVDZ-RI
aug-cc-pVDZ-RI
cc-pVDZ-RI
cc-pVDZ-RI
cc-pVDZ-RI
cc-pVDZ-RI
aug-cc-pVDZ-RI
aug-cc-pVDZ-RI
aug-cc-pVDZ-RI
aug-cc-pVDZ-RI
aug-cc-pVDZ-RI
aug-cc-pVDZ-RI
aug-cc-pVDZ-RI
aug-cc-pVDZ-RI
aug-cc-pVDZ-RI
aug-cc-pVDZ-RI
aug-cc-pVDZ-RI
aug-cc-pVDZ-RI
aug-cc-pVDZ-RI
aug-cc-pVDZ-RI
aug-cc-pVDZ-RI
aug-cc-pVDZ-RI
no-basis-set
no-basis-set
no-basis-set
no-basis-set
no-basis-set
no-basis-set
no-basis-set
no-basis-set
no-basis-set
no-basis-set
no-basis-set
no-basis-set
no-basis-set
no-basis-set
no-basis-set
no-basis-set
no-basis-set
no-basis-set
no-basis-set
no-basis-set
no-basis-set
no-basis-set
no-basis-set
no-basis-set
no-basis-set
no-basis-set
no-basis-set
no-basis-set
no-basis-set
no-basis-set
no-basis-set
no-basis-set
no-basis-set
no-basis-set
no-basis-set
no-basis-set
no-basis-set
no-basis-set
no-basis-set
no-basis-set
no-basis-set
no-basis-set
no-basis-set
no-basis-set
no-basis-set
no-basis-set
no-basis-set
no-basis-set
no-basis-set
no-basis-set
no-basis-set
no-basis-set
no-basis-set
no-basis-set
no-basis-set
no-basis-set
no-basis-set
no-basis-set
no-basis-set
no-basis-set
no-basis-set
no-basis-set
no-basis-set
no-basis-set
no-basis-set
no-basis-set
no-basis-set
no-basis-set
no-basis-set
no-basis-set
no-basis-set
no-basis-set
no-basis-set
no-basis-set
no-basis-set
no-basis-set
no-basis-set
no-basis-set
no-basis-set
no-basis-set
no-basis-set
no-basis-set
no-basis-set
no-basis-set
no-basis-set
no-basis-set
no-basis-set
no-basis-set
no-basis-set
no-basis-set
no-basis-set
no-basis-set
no-basis-set
no-basis-set
no-basis-set
no-basis-set
no-basis-set
no-basis-set
no-basis-set
no-basis-set
no-basis-set
no-basis-set
no-basis-set
no-basis-set
no-basis-set
no-basis-set
no-basis-set
no-basis-set
no-basis-set
no-basis-set
no-basis-set
no-basis-set
no-basis-set


ecp=special
none
none
none
none
none
none
none
none
none
none
none
none
none
none
none
none
none
none
none
none
none
none
none
none
none
none
none
none
none
none
none
none
none
none
none
none
capECP
capECP
capECP
capECP
capECP
capECP
capECP
capECP
capECP
capECP
capECP
capECP
capECP
capECP
capECP
capECP
capECP
capECP
capECP
capECP
capECP
capECP
capECP
capECP
capECP
capECP
capECP
capECP
capECP
capECP
capECP
capECP
capECP
capECP
capECP
capECP
capECP
capECP
capECP
capECP
capECP
capECP
capECP
capECP
capECP
capECP
capECP
capECP
capECP
capECP
capECP
capECP
capECP
capECP
capECP
capECP
capECP
capECP
capECP
capECP
capECP
capECP
capECP
capECP
capECP
capECP
capECP
capECP
capECP
capECP
capECP
capECP
capECP
capECP
capECP
capECP
capECP
capECP
capECP
capECP
capECP
capECP
capECP
capECP
capECP
capECP
capECP
capECP
capECP
capECP
capECP
capECP
capECP
capECP
capECP
capECP
capECP
capECP
capECP
capECP
capECP
capECP
capECP
capECP
capECP
capECP
capECP
capECP
capECP
capECP
capECP
capECP
capECP

charge=-32
mult=1
core=70
geom=xyz
149

C                       0.00000000000    0.00000000000    2.44102235837
O                       0.00000000000    0.00000000000    3.58784217303
Mg                      0.00000000000    0.00000000000    0.00000000000
O                      -2.12018425659    0.00000000000    0.00567209089
O                       0.00000000000    2.12018425659    0.00567209089
O                       2.12018425659    0.00000000000    0.00567209089
O                       0.00000000000   -2.12018425659    0.00567209089
O                       0.00000000000    0.00000000000   -2.14129966123
Mg                     -2.11144262254    2.11144262254   -0.04367284424
Mg                      2.11144262254    2.11144262254   -0.04367284424
Mg                      2.11144262254   -2.11144262254   -0.04367284424
Mg                     -2.11144262254   -2.11144262254   -0.04367284424
O                      -2.11070451449    2.11070451449   -2.14923989662
O                       2.11070451449    2.11070451449   -2.14923989662
O                       2.11070451449   -2.11070451449   -2.14923989662
O                      -2.11070451449   -2.11070451449   -2.14923989662
Mg                     -4.22049352791    0.00000000000   -0.04269731856
Mg                      0.00000000000    4.22049352791   -0.04269731856
Mg                      4.22049352791    0.00000000000   -0.04269731856
Mg                      0.00000000000   -4.22049352791   -0.04269731856
O                      -4.22049352791    2.11209139723    0.00772802266
O                      -2.11209139723    4.22049352791    0.00772802266
O                       2.11209139723    4.22049352791    0.00772802266
O                       4.22049352791    2.11209139723    0.00772802266
O                       4.22049352791   -2.11209139723    0.00772802266
O                       2.11209139723   -4.22049352791    0.00772802266
O                      -2.11209139723   -4.22049352791    0.00772802266
O                      -4.22049352791   -2.11209139723    0.00772802266
O                      -4.22049352791    0.00000000000   -2.15129719490
O                       0.00000000000    4.22049352791   -2.15129719490
O                       4.22049352791    0.00000000000   -2.15129719490
O                       0.00000000000   -4.22049352791   -2.15129719490
O                      -6.32080279923    0.00000000000    0.00567209089
O                       0.00000000000    6.32080279923    0.00567209089
O                       6.32080279923    0.00000000000    0.00567209089
O                       0.00000000000   -6.32080279923    0.00567209089
Mg                     -2.10705287155    0.00000000000   -2.14155206950
Mg                      0.00000000000    2.10705287155   -2.14155206950
Mg                      2.10705287155    0.00000000000   -2.14155206950
Mg                      0.00000000000   -2.10705287155   -2.14155206950
Mg                      0.00000000000    0.00000000000   -4.26789528527
Mg                     -4.22049352791    2.10973412517   -2.14445912302
Mg                     -2.10973412517    4.22049352791   -2.14445912302
Mg                      2.10973412517    4.22049352791   -2.14445912302
Mg                      4.22049352791    2.10973412517   -2.14445912302
Mg                      4.22049352791   -2.10973412517   -2.14445912302
Mg                      2.10973412517   -4.22049352791   -2.14445912302
Mg                     -2.10973412517   -4.22049352791   -2.14445912302
Mg                     -4.22049352791   -2.10973412517   -2.14445912302
Mg                     -2.11024676395    2.11024676395   -4.26789528527
Mg                      2.11024676395    2.11024676395   -4.26789528527
Mg                      2.11024676395   -2.11024676395   -4.26789528527
Mg                     -2.11024676395   -2.11024676395   -4.26789528527
Mg                     -4.22049352791    4.22049352791   -0.03992370948
Mg                      4.22049352791    4.22049352791   -0.03992370948
Mg                      4.22049352791   -4.22049352791   -0.03992370948
Mg                     -4.22049352791   -4.22049352791   -0.03992370948
Mg                     -4.22049352791    0.00000000000   -4.26789528527
Mg                      0.00000000000    4.22049352791   -4.26789528527
Mg                      4.22049352791    0.00000000000   -4.26789528527
Mg                      0.00000000000   -4.22049352791   -4.26789528527
Mg                     -6.32954443328    2.11144262254   -0.04367284424
Mg                     -2.11144262254    6.32954443328   -0.04367284424
Mg                      2.11144262254    6.32954443328   -0.04367284424
Mg                      6.32954443328    2.11144262254   -0.04367284424
Mg                      6.32954443328   -2.11144262254   -0.04367284424
Mg                      2.11144262254   -6.32954443328   -0.04367284424
Mg                     -2.11144262254   -6.32954443328   -0.04367284424
Mg                     -6.32954443328   -2.11144262254   -0.04367284424
Mg                     -6.33393418427    0.00000000000   -2.14155206950
Mg                      0.00000000000    6.33393418427   -2.14155206950
Mg                      6.33393418427    0.00000000000   -2.14155206950
Mg                      0.00000000000   -6.33393418427   -2.14155206950
Mg                     -2.11024676395    0.00000000000   -6.37814204923
Mg                      0.00000000000    2.11024676395   -6.37814204923
Mg                      2.11024676395    0.00000000000   -6.37814204923
Mg                      0.00000000000   -2.11024676395   -6.37814204923
Mg                     -4.22049352791    4.22049352791   -4.26789528527
Mg                      4.22049352791    4.22049352791   -4.26789528527
Mg                      4.22049352791   -4.22049352791   -4.26789528527
Mg                     -4.22049352791   -4.22049352791   -4.26789528527
Mg                     -6.33125293065    4.22049352791   -2.14445912302
Mg                     -4.22049352791    6.33125293065   -2.14445912302
Mg                      4.22049352791    6.33125293065   -2.14445912302
Mg                      6.33125293065    4.22049352791   -2.14445912302
Mg                      6.33125293065   -4.22049352791   -2.14445912302
Mg                      4.22049352791   -6.33125293065   -2.14445912302
Mg                     -4.22049352791   -6.33125293065   -2.14445912302
Mg                     -6.33125293065   -4.22049352791   -2.14445912302
Mg                     -6.33074029186    2.11024676395   -4.26789528527
Mg                     -2.11024676395    6.33074029186   -4.26789528527
Mg                      2.11024676395    6.33074029186   -4.26789528527
Mg                      6.33074029186    2.11024676395   -4.26789528527
Mg                      6.33074029186   -2.11024676395   -4.26789528527
Mg                      2.11024676395   -6.33074029186   -4.26789528527
Mg                     -2.11024676395   -6.33074029186   -4.26789528527
Mg                     -6.33074029186   -2.11024676395   -4.26789528527
Mg                     -4.22049352791    2.11024676395   -6.37814204923
Mg                     -2.11024676395    4.22049352791   -6.37814204923
Mg                      2.11024676395    4.22049352791   -6.37814204923
Mg                      4.22049352791    2.11024676395   -6.37814204923
Mg                      4.22049352791   -2.11024676395   -6.37814204923
Mg                      2.11024676395   -4.22049352791   -6.37814204923
Mg                     -2.11024676395   -4.22049352791   -6.37814204923
Mg                     -4.22049352791   -2.11024676395   -6.37814204923
Mg                     -8.44098705582    0.00000000000    0.00000000000
Mg                      0.00000000000    8.44098705582    0.00000000000
Mg                      8.44098705582    0.00000000000    0.00000000000
Mg                      0.00000000000   -8.44098705582    0.00000000000
Mg                     -6.32954443328    6.32954443328   -0.04367284424
Mg                      6.32954443328    6.32954443328   -0.04367284424
Mg                      6.32954443328   -6.32954443328   -0.04367284424
Mg                     -6.32954443328   -6.32954443328   -0.04367284424
Mg                     -8.44098705582    2.10705287155   -2.14155206950
Mg                     -2.10705287155    8.44098705582   -2.14155206950
Mg                      2.10705287155    8.44098705582   -2.14155206950
Mg                      8.44098705582    2.10705287155   -2.14155206950
Mg                      8.44098705582   -2.10705287155   -2.14155206950
Mg                      2.10705287155   -8.44098705582   -2.14155206950
Mg                     -2.10705287155   -8.44098705582   -2.14155206950
Mg                     -8.44098705582   -2.10705287155   -2.14155206950
Mg                     -6.33074029186    0.00000000000   -6.37814204923
Mg                      0.00000000000    6.33074029186   -6.37814204923
Mg                      6.33074029186    0.00000000000   -6.37814204923
Mg                      0.00000000000   -6.33074029186   -6.37814204923
Mg                     -8.44098705582    4.22049352791   -0.04269731856
Mg                     -4.22049352791    8.44098705582   -0.04269731856
Mg                      4.22049352791    8.44098705582   -0.04269731856
Mg                      8.44098705582    4.22049352791   -0.04269731856
Mg                      8.44098705582   -4.22049352791   -0.04269731856
Mg                      4.22049352791   -8.44098705582   -0.04269731856
Mg                     -4.22049352791   -8.44098705582   -0.04269731856
Mg                     -8.44098705582   -4.22049352791   -0.04269731856
Mg                     -8.44098705582    0.00000000000   -4.26789528527
Mg                      0.00000000000    8.44098705582   -4.26789528527
Mg                      8.44098705582    0.00000000000   -4.26789528527
Mg                      0.00000000000   -8.44098705582   -4.26789528527
Mg                    -10.55242967836    2.11144262254   -0.04367284424
Mg                     -2.11144262254   10.55242967836   -0.04367284424
Mg                      2.11144262254   10.55242967836   -0.04367284424
Mg                     10.55242967836    2.11144262254   -0.04367284424
Mg                     10.55242967836   -2.11144262254   -0.04367284424
Mg                      2.11144262254  -10.55242967836   -0.04367284424
Mg                     -2.11144262254  -10.55242967836   -0.04367284424
Mg                    -10.55242967836   -2.11144262254   -0.04367284424
Mg                    -10.54803992736    0.00000000000   -2.14155206950
Mg                      0.00000000000   10.54803992736   -2.14155206950
Mg                     10.54803992736    0.00000000000   -2.14155206950
Mg                      0.00000000000  -10.54803992736   -2.14155206950

ghost=serialno
1,2

qmmm=Amber
pointcharges
10157
    -2.10705287155    0.00000000000   -2.14155206950    2.00000000000
     0.00000000000    2.10705287155   -2.14155206950    2.00000000000
     2.10705287155    0.00000000000   -2.14155206950    2.00000000000
     0.00000000000   -2.10705287155   -2.14155206950    2.00000000000
     0.00000000000    0.00000000000   -4.26789528527    2.00000000000
    -2.11024676395    0.00000000000   -4.26789528527   -2.00000000000
     0.00000000000    2.11024676395   -4.26789528527   -2.00000000000
     2.11024676395    0.00000000000   -4.26789528527   -2.00000000000
     0.00000000000   -2.11024676395   -4.26789528527   -2.00000000000
    -4.22049352791    2.10973412517   -2.14445912302    2.00000000000
    -2.10973412517    4.22049352791   -2.14445912302    2.00000000000
     2.10973412517    4.22049352791   -2.14445912302    2.00000000000
     4.22049352791    2.10973412517   -2.14445912302    2.00000000000
     4.22049352791   -2.10973412517   -2.14445912302    2.00000000000
     2.10973412517   -4.22049352791   -2.14445912302    2.00000000000
    -2.10973412517   -4.22049352791   -2.14445912302    2.00000000000
    -4.22049352791   -2.10973412517   -2.14445912302    2.00000000000
    -2.11024676395    2.11024676395   -4.26789528527    2.00000000000
     2.11024676395    2.11024676395   -4.26789528527    2.00000000000
     2.11024676395   -2.11024676395   -4.26789528527    2.00000000000
    -2.11024676395   -2.11024676395   -4.26789528527    2.00000000000
    -4.22049352791    4.22049352791   -0.03992370948    2.00000000000
     4.22049352791    4.22049352791   -0.03992370948    2.00000000000
     4.22049352791   -4.22049352791   -0.03992370948    2.00000000000
    -4.22049352791   -4.22049352791   -0.03992370948    2.00000000000
    -4.22049352791    0.00000000000   -4.26789528527    2.00000000000
     0.00000000000    4.22049352791   -4.26789528527    2.00000000000
     4.22049352791    0.00000000000   -4.26789528527    2.00000000000
     0.00000000000   -4.22049352791   -4.26789528527    2.00000000000
    -4.22049352791    4.22049352791   -2.15028985266   -2.00000000000
     4.22049352791    4.22049352791   -2.15028985266   -2.00000000000
     4.22049352791   -4.22049352791   -2.15028985266   -2.00000000000
    -4.22049352791   -4.22049352791   -2.15028985266   -2.00000000000
    -4.22049352791    2.11024676395   -4.26789528527   -2.00000000000
    -2.11024676395    4.22049352791   -4.26789528527   -2.00000000000
     2.11024676395    4.22049352791   -4.26789528527   -2.00000000000
     4.22049352791    2.11024676395   -4.26789528527   -2.00000000000
     4.22049352791   -2.11024676395   -4.26789528527   -2.00000000000
     2.11024676395   -4.22049352791   -4.26789528527   -2.00000000000
    -2.11024676395   -4.22049352791   -4.26789528527   -2.00000000000
    -4.22049352791   -2.11024676395   -4.26789528527   -2.00000000000
     0.00000000000    0.00000000000   -6.37814204923   -2.00000000000
    -6.32954443328    2.11144262254   -0.04367284424    2.00000000000
    -2.11144262254    6.32954443328   -0.04367284424    2.00000000000
     2.11144262254    6.32954443328   -0.04367284424    2.00000000000
     6.32954443328    2.11144262254   -0.04367284424    2.00000000000
     6.32954443328   -2.11144262254   -0.04367284424    2.00000000000
     2.11144262254   -6.32954443328   -0.04367284424    2.00000000000
    -2.11144262254   -6.32954443328   -0.04367284424    2.00000000000
    -6.32954443328   -2.11144262254   -0.04367284424    2.00000000000
    -6.33393418427    0.00000000000   -2.14155206950    2.00000000000
     0.00000000000    6.33393418427   -2.14155206950    2.00000000000
     6.33393418427    0.00000000000   -2.14155206950    2.00000000000
     0.00000000000   -6.33393418427   -2.14155206950    2.00000000000
    -2.11024676395    0.00000000000   -6.37814204923    2.00000000000
     0.00000000000    2.11024676395   -6.37814204923    2.00000000000
     2.11024676395    0.00000000000   -6.37814204923    2.00000000000
     0.00000000000   -2.11024676395   -6.37814204923    2.00000000000
    -6.33028254133    2.11070451449   -2.14923989662   -2.00000000000
    -2.11070451449    6.33028254133   -2.14923989662   -2.00000000000
     2.11070451449    6.33028254133   -2.14923989662   -2.00000000000
     6.33028254133    2.11070451449   -2.14923989662   -2.00000000000
     6.33028254133   -2.11070451449   -2.14923989662   -2.00000000000
     2.11070451449   -6.33028254133   -2.14923989662   -2.00000000000
    -2.11070451449   -6.33028254133   -2.14923989662   -2.00000000000
    -6.33028254133   -2.11070451449   -2.14923989662   -2.00000000000
    -2.11024676395    2.11024676395   -6.37814204923   -2.00000000000
     2.11024676395    2.11024676395   -6.37814204923   -2.00000000000
     2.11024676395   -2.11024676395   -6.37814204923   -2.00000000000
    -2.11024676395   -2.11024676395   -6.37814204923   -2.00000000000
    -4.22049352791    4.22049352791   -4.26789528527    2.00000000000
     4.22049352791    4.22049352791   -4.26789528527    2.00000000000
     4.22049352791   -4.22049352791   -4.26789528527    2.00000000000
    -4.22049352791   -4.22049352791   -4.26789528527    2.00000000000
    -6.32889565859    4.22049352791    0.00772802266   -2.00000000000
    -4.22049352791    6.32889565859    0.00772802266   -2.00000000000
     4.22049352791    6.32889565859    0.00772802266   -2.00000000000
     6.32889565859    4.22049352791    0.00772802266   -2.00000000000
     6.32889565859   -4.22049352791    0.00772802266   -2.00000000000
     4.22049352791   -6.32889565859    0.00772802266   -2.00000000000
    -4.22049352791   -6.32889565859    0.00772802266   -2.00000000000
    -6.32889565859   -4.22049352791    0.00772802266   -2.00000000000
    -6.33074029186    0.00000000000   -4.26789528527   -2.00000000000
     0.00000000000    6.33074029186   -4.26789528527   -2.00000000000
     6.33074029186    0.00000000000   -4.26789528527   -2.00000000000
     0.00000000000   -6.33074029186   -4.26789528527   -2.00000000000
    -4.22049352791    0.00000000000   -6.37814204923   -2.00000000000
     0.00000000000    4.22049352791   -6.37814204923   -2.00000000000
     4.22049352791    0.00000000000   -6.37814204923   -2.00000000000
     0.00000000000   -4.22049352791   -6.37814204923   -2.00000000000
    -6.33125293065    4.22049352791   -2.14445912302    2.00000000000
    -4.22049352791    6.33125293065   -2.14445912302    2.00000000000
     4.22049352791    6.33125293065   -2.14445912302    2.00000000000
     6.33125293065    4.22049352791   -2.14445912302    2.00000000000
     6.33125293065   -4.22049352791   -2.14445912302    2.00000000000
     4.22049352791   -6.33125293065   -2.14445912302    2.00000000000
    -4.22049352791   -6.33125293065   -2.14445912302    2.00000000000
    -6.33125293065   -4.22049352791   -2.14445912302    2.00000000000
    -6.33074029186    2.11024676395   -4.26789528527    2.00000000000
    -2.11024676395    6.33074029186   -4.26789528527    2.00000000000
     2.11024676395    6.33074029186   -4.26789528527    2.00000000000
     6.33074029186    2.11024676395   -4.26789528527    2.00000000000
     6.33074029186   -2.11024676395   -4.26789528527    2.00000000000
     2.11024676395   -6.33074029186   -4.26789528527    2.00000000000
    -2.11024676395   -6.33074029186   -4.26789528527    2.00000000000
    -6.33074029186   -2.11024676395   -4.26789528527    2.00000000000
    -4.22049352791    2.11024676395   -6.37814204923    2.00000000000
    -2.11024676395    4.22049352791   -6.37814204923    2.00000000000
     2.11024676395    4.22049352791   -6.37814204923    2.00000000000
     4.22049352791    2.11024676395   -6.37814204923    2.00000000000
     4.22049352791   -2.11024676395   -6.37814204923    2.00000000000
     2.11024676395   -4.22049352791   -6.37814204923    2.00000000000
    -2.11024676395   -4.22049352791   -6.37814204923    2.00000000000
    -4.22049352791   -2.11024676395   -6.37814204923    2.00000000000
    -8.44098705582    0.00000000000    0.00000000000    2.00000000000
     0.00000000000    8.44098705582    0.00000000000    2.00000000000
     8.44098705582    0.00000000000    0.00000000000    2.00000000000
     0.00000000000   -8.44098705582    0.00000000000    2.00000000000
    -8.44098705582    2.12018425659    0.00567209089   -2.00000000000
    -2.12018425659    8.44098705582    0.00567209089   -2.00000000000
     2.12018425659    8.44098705582    0.00567209089   -2.00000000000
     8.44098705582    2.12018425659    0.00567209089   -2.00000000000
     8.44098705582   -2.12018425659    0.00567209089   -2.00000000000
     2.12018425659   -8.44098705582    0.00567209089   -2.00000000000
    -2.12018425659   -8.44098705582    0.00567209089   -2.00000000000
    -8.44098705582   -2.12018425659    0.00567209089   -2.00000000000
    -8.44098705582    0.00000000000   -2.14129966123   -2.00000000000
     0.00000000000    8.44098705582   -2.14129966123   -2.00000000000
     8.44098705582    0.00000000000   -2.14129966123   -2.00000000000
     0.00000000000   -8.44098705582   -2.14129966123   -2.00000000000
    -6.33074029186    4.22049352791   -4.26789528527   -2.00000000000
    -4.22049352791    6.33074029186   -4.26789528527   -2.00000000000
     4.22049352791    6.33074029186   -4.26789528527   -2.00000000000
     6.33074029186    4.22049352791   -4.26789528527   -2.00000000000
     6.33074029186   -4.22049352791   -4.26789528527   -2.00000000000
     4.22049352791   -6.33074029186   -4.26789528527   -2.00000000000
    -4.22049352791   -6.33074029186   -4.26789528527   -2.00000000000
    -6.33074029186   -4.22049352791   -4.26789528527   -2.00000000000
    -4.22049352791    4.22049352791   -6.37814204923   -2.00000000000
     4.22049352791    4.22049352791   -6.37814204923   -2.00000000000
     4.22049352791   -4.22049352791   -6.37814204923   -2.00000000000
    -4.22049352791   -4.22049352791   -6.37814204923   -2.00000000000
    -6.32954443328    6.32954443328   -0.04367284424    2.00000000000
     6.32954443328    6.32954443328   -0.04367284424    2.00000000000
     6.32954443328   -6.32954443328   -0.04367284424    2.00000000000
    -6.32954443328   -6.32954443328   -0.04367284424    2.00000000000
    -8.44098705582    2.10705287155   -2.14155206950    2.00000000000
    -2.10705287155    8.44098705582   -2.14155206950    2.00000000000
     2.10705287155    8.44098705582   -2.14155206950    2.00000000000
     8.44098705582    2.10705287155   -2.14155206950    2.00000000000
     8.44098705582   -2.10705287155   -2.14155206950    2.00000000000
     2.10705287155   -8.44098705582   -2.14155206950    2.00000000000
    -2.10705287155   -8.44098705582   -2.14155206950    2.00000000000
    -8.44098705582   -2.10705287155   -2.14155206950    2.00000000000
    -6.33074029186    0.00000000000   -6.37814204923    2.00000000000
     0.00000000000    6.33074029186   -6.37814204923    2.00000000000
     6.33074029186    0.00000000000   -6.37814204923    2.00000000000
     0.00000000000   -6.33074029186   -6.37814204923    2.00000000000
    -6.33028254133    6.33028254133   -2.14923989662   -2.00000000000
     6.33028254133    6.33028254133   -2.14923989662   -2.00000000000
     6.33028254133   -6.33028254133   -2.14923989662   -2.00000000000
    -6.33028254133   -6.33028254133   -2.14923989662   -2.00000000000
    -6.33074029186    2.11024676395   -6.37814204923   -2.00000000000
    -2.11024676395    6.33074029186   -6.37814204923   -2.00000000000
     2.11024676395    6.33074029186   -6.37814204923   -2.00000000000
     6.33074029186    2.11024676395   -6.37814204923   -2.00000000000
     6.33074029186   -2.11024676395   -6.37814204923   -2.00000000000
     2.11024676395   -6.33074029186   -6.37814204923   -2.00000000000
    -2.11024676395   -6.33074029186   -6.37814204923   -2.00000000000
    -6.33074029186   -2.11024676395   -6.37814204923   -2.00000000000
    -8.44098705582    4.22049352791   -0.04269731856    2.00000000000
    -4.22049352791    8.44098705582   -0.04269731856    2.00000000000
     4.22049352791    8.44098705582   -0.04269731856    2.00000000000
     8.44098705582    4.22049352791   -0.04269731856    2.00000000000
     8.44098705582   -4.22049352791   -0.04269731856    2.00000000000
     4.22049352791   -8.44098705582   -0.04269731856    2.00000000000
    -4.22049352791   -8.44098705582   -0.04269731856    2.00000000000
    -8.44098705582   -4.22049352791   -0.04269731856    2.00000000000
    -8.44098705582    0.00000000000   -4.26789528527    2.00000000000
     0.00000000000    8.44098705582   -4.26789528527    2.00000000000
     8.44098705582    0.00000000000   -4.26789528527    2.00000000000
     0.00000000000   -8.44098705582   -4.26789528527    2.00000000000
    -8.44098705582    4.22049352791   -2.15129719490   -2.00000000000
    -4.22049352791    8.44098705582   -2.15129719490   -2.00000000000
     4.22049352791    8.44098705582   -2.15129719490   -2.00000000000
     8.44098705582    4.22049352791   -2.15129719490   -2.00000000000
     8.44098705582   -4.22049352791   -2.15129719490   -2.00000000000
     4.22049352791   -8.44098705582   -2.15129719490   -2.00000000000
    -4.22049352791   -8.44098705582   -2.15129719490   -2.00000000000
    -8.44098705582   -4.22049352791   -2.15129719490   -2.00000000000
    -8.44098705582    2.11024676395   -4.26789528527   -2.00000000000
    -2.11024676395    8.44098705582   -4.26789528527   -2.00000000000
     2.11024676395    8.44098705582   -4.26789528527   -2.00000000000
     8.44098705582    2.11024676395   -4.26789528527   -2.00000000000
     8.44098705582   -2.11024676395   -4.26789528527   -2.00000000000
     2.11024676395   -8.44098705582   -4.26789528527   -2.00000000000
    -2.11024676395   -8.44098705582   -4.26789528527   -2.00000000000
    -8.44098705582   -2.11024676395   -4.26789528527   -2.00000000000
    -6.33074029186    6.33074029186   -4.26789528527    2.00000000000
     6.33074029186    6.33074029186   -4.26789528527    2.00000000000
     6.33074029186   -6.33074029186   -4.26789528527    2.00000000000
    -6.33074029186   -6.33074029186   -4.26789528527    2.00000000000
    -6.33074029186    4.22049352791   -6.37814204923    2.00000000000
    -4.22049352791    6.33074029186   -6.37814204923    2.00000000000
     4.22049352791    6.33074029186   -6.37814204923    2.00000000000
     6.33074029186    4.22049352791   -6.37814204923    2.00000000000
     6.33074029186   -4.22049352791   -6.37814204923    2.00000000000
     4.22049352791   -6.33074029186   -6.37814204923    2.00000000000
    -4.22049352791   -6.33074029186   -6.37814204923    2.00000000000
    -6.33074029186   -4.22049352791   -6.37814204923    2.00000000000
    -8.44098705582    4.22049352791   -4.26789528527    2.00000000000
    -4.22049352791    8.44098705582   -4.26789528527    2.00000000000
     4.22049352791    8.44098705582   -4.26789528527    2.00000000000
     8.44098705582    4.22049352791   -4.26789528527    2.00000000000
     8.44098705582   -4.22049352791   -4.26789528527    2.00000000000
     4.22049352791   -8.44098705582   -4.26789528527    2.00000000000
    -4.22049352791   -8.44098705582   -4.26789528527    2.00000000000
    -8.44098705582   -4.22049352791   -4.26789528527    2.00000000000
    -8.44098705582    6.32080279923    0.00567209089   -2.00000000000
    -6.32080279923    8.44098705582    0.00567209089   -2.00000000000
     6.32080279923    8.44098705582    0.00567209089   -2.00000000000
     8.44098705582    6.32080279923    0.00567209089   -2.00000000000
     8.44098705582   -6.32080279923    0.00567209089   -2.00000000000
     6.32080279923   -8.44098705582    0.00567209089   -2.00000000000
    -6.32080279923   -8.44098705582    0.00567209089   -2.00000000000
    -8.44098705582   -6.32080279923    0.00567209089   -2.00000000000
   -10.56117131241    0.00000000000    0.00567209089   -2.00000000000
     0.00000000000   10.56117131241    0.00567209089   -2.00000000000
    10.56117131241    0.00000000000    0.00567209089   -2.00000000000
     0.00000000000  -10.56117131241    0.00567209089   -2.00000000000
    -8.44098705582    0.00000000000   -6.37814204923   -2.00000000000
     0.00000000000    8.44098705582   -6.37814204923   -2.00000000000
     8.44098705582    0.00000000000   -6.37814204923   -2.00000000000
     0.00000000000   -8.44098705582   -6.37814204923   -2.00000000000
   -10.55242967836    2.11144262254   -0.04367284424    2.00000000000
    -2.11144262254   10.55242967836   -0.04367284424    2.00000000000
     2.11144262254   10.55242967836   -0.04367284424    2.00000000000
    10.55242967836    2.11144262254   -0.04367284424    2.00000000000
    10.55242967836   -2.11144262254   -0.04367284424    2.00000000000
     2.11144262254  -10.55242967836   -0.04367284424    2.00000000000
    -2.11144262254  -10.55242967836   -0.04367284424    2.00000000000
   -10.55242967836   -2.11144262254   -0.04367284424    2.00000000000
   -10.54803992736    0.00000000000   -2.14155206950    2.00000000000
     0.00000000000   10.54803992736   -2.14155206950    2.00000000000
    10.54803992736    0.00000000000   -2.14155206950    2.00000000000
     0.00000000000  -10.54803992736   -2.14155206950    2.00000000000
    -8.44098705582    6.33393418427   -2.14155206950    2.00000000000
    -6.33393418427    8.44098705582   -2.14155206950    2.00000000000
     6.33393418427    8.44098705582   -2.14155206950    2.00000000000
     8.44098705582    6.33393418427   -2.14155206950    2.00000000000
     8.44098705582   -6.33393418427   -2.14155206950    2.00000000000
     6.33393418427   -8.44098705582   -2.14155206950    2.00000000000
    -6.33393418427   -8.44098705582   -2.14155206950    2.00000000000
    -8.44098705582   -6.33393418427   -2.14155206950    2.00000000000
    -8.44098705582    2.11024676395   -6.37814204923    2.00000000000
    -2.11024676395    8.44098705582   -6.37814204923    2.00000000000
     2.11024676395    8.44098705582   -6.37814204923    2.00000000000
     8.44098705582    2.11024676395   -6.37814204923    2.00000000000
     8.44098705582   -2.11024676395   -6.37814204923    2.00000000000
     2.11024676395   -8.44098705582   -6.37814204923    2.00000000000
    -2.11024676395   -8.44098705582   -6.37814204923    2.00000000000
    -8.44098705582   -2.11024676395   -6.37814204923    2.00000000000
   -10.55169157031    2.11070451449   -2.14923989662   -2.00000000000
    -2.11070451449   10.55169157031   -2.14923989662   -2.00000000000
     2.11070451449   10.55169157031   -2.14923989662   -2.00000000000
    10.55169157031    2.11070451449   -2.14923989662   -2.00000000000
    10.55169157031   -2.11070451449   -2.14923989662   -2.00000000000
     2.11070451449  -10.55169157031   -2.14923989662   -2.00000000000
    -2.11070451449  -10.55169157031   -2.14923989662   -2.00000000000
   -10.55169157031   -2.11070451449   -2.14923989662   -2.00000000000
    -6.33074029186    6.33074029186   -6.37814204923   -2.00000000000
     6.33074029186    6.33074029186   -6.37814204923   -2.00000000000
     6.33074029186   -6.33074029186   -6.37814204923   -2.00000000000
    -6.33074029186   -6.33074029186   -6.37814204923   -2.00000000000
   -10.55307845305    4.22049352791    0.00772802266   -2.00000000000
    -4.22049352791   10.55307845305    0.00772802266   -2.00000000000
     4.22049352791   10.55307845305    0.00772802266   -2.00000000000
    10.55307845305    4.22049352791    0.00772802266   -2.00000000000
    10.55307845305   -4.22049352791    0.00772802266   -2.00000000000
     4.22049352791  -10.55307845305    0.00772802266   -2.00000000000
    -4.22049352791  -10.55307845305    0.00772802266   -2.00000000000
   -10.55307845305   -4.22049352791    0.00772802266   -2.00000000000
   -10.55123381977    0.00000000000   -4.26789528527   -2.00000000000
    -8.44098705582    6.33074029186   -4.26789528527   -2.00000000000
    -6.33074029186    8.44098705582   -4.26789528527   -2.00000000000
     0.00000000000   10.55123381977   -4.26789528527   -2.00000000000
     6.33074029186    8.44098705582   -4.26789528527   -2.00000000000
     8.44098705582    6.33074029186   -4.26789528527   -2.00000000000
    10.55123381977    0.00000000000   -4.26789528527   -2.00000000000
     8.44098705582   -6.33074029186   -4.26789528527   -2.00000000000
     6.33074029186   -8.44098705582   -4.26789528527   -2.00000000000
     0.00000000000  -10.55123381977   -4.26789528527   -2.00000000000
    -6.33074029186   -8.44098705582   -4.26789528527   -2.00000000000
    -8.44098705582   -6.33074029186   -4.26789528527   -2.00000000000
    -8.44098705582    4.22049352791   -6.37814204923   -2.00000000000
    -4.22049352791    8.44098705582   -6.37814204923   -2.00000000000
     4.22049352791    8.44098705582   -6.37814204923   -2.00000000000
     8.44098705582    4.22049352791   -6.37814204923   -2.00000000000
     8.44098705582   -4.22049352791   -6.37814204923   -2.00000000000
     4.22049352791   -8.44098705582   -6.37814204923   -2.00000000000
    -4.22049352791   -8.44098705582   -6.37814204923   -2.00000000000
    -8.44098705582   -4.22049352791   -6.37814204923   -2.00000000000
   -10.55072118099    4.22049352791   -2.14445912302    2.00000000000
    -4.22049352791   10.55072118099   -2.14445912302    2.00000000000
     4.22049352791   10.55072118099   -2.14445912302    2.00000000000
    10.55072118099    4.22049352791   -2.14445912302    2.00000000000
    10.55072118099   -4.22049352791   -2.14445912302    2.00000000000
     4.22049352791  -10.55072118099   -2.14445912302    2.00000000000
    -4.22049352791  -10.55072118099   -2.14445912302    2.00000000000
   -10.55072118099   -4.22049352791   -2.14445912302    2.00000000000
   -10.55123381977    2.11024676395   -4.26789528527    2.00000000000
    -2.11024676395   10.55123381977   -4.26789528527    2.00000000000
     2.11024676395   10.55123381977   -4.26789528527    2.00000000000
    10.55123381977    2.11024676395   -4.26789528527    2.00000000000
    10.55123381977   -2.11024676395   -4.26789528527    2.00000000000
     2.11024676395  -10.55123381977   -4.26789528527    2.00000000000
    -2.11024676395  -10.55123381977   -4.26789528527    2.00000000000
   -10.55123381977   -2.11024676395   -4.26789528527    2.00000000000
    -8.44098705582    8.44098705582    0.00000000000    2.00000000000
     8.44098705582    8.44098705582    0.00000000000    2.00000000000
     8.44098705582   -8.44098705582    0.00000000000    2.00000000000
    -8.44098705582   -8.44098705582    0.00000000000    2.00000000000
    -8.44098705582    8.44098705582   -2.14129966123   -2.00000000000
     8.44098705582    8.44098705582   -2.14129966123   -2.00000000000
     8.44098705582   -8.44098705582   -2.14129966123   -2.00000000000
    -8.44098705582   -8.44098705582   -2.14129966123   -2.00000000000
   -10.55123381977    4.22049352791   -4.26789528527   -2.00000000000
    -4.22049352791   10.55123381977   -4.26789528527   -2.00000000000
     4.22049352791   10.55123381977   -4.26789528527   -2.00000000000
    10.55123381977    4.22049352791   -4.26789528527   -2.00000000000
    10.55123381977   -4.22049352791   -4.26789528527   -2.00000000000
     4.22049352791  -10.55123381977   -4.26789528527   -2.00000000000
    -4.22049352791  -10.55123381977   -4.26789528527   -2.00000000000
   -10.55123381977   -4.22049352791   -4.26789528527   -2.00000000000
   -10.55242967836    6.32954443328   -0.04367284424    2.00000000000
    -6.32954443328   10.55242967836   -0.04367284424    2.00000000000
     6.32954443328   10.55242967836   -0.04367284424    2.00000000000
    10.55242967836    6.32954443328   -0.04367284424    2.00000000000
    10.55242967836   -6.32954443328   -0.04367284424    2.00000000000
     6.32954443328  -10.55242967836   -0.04367284424    2.00000000000
    -6.32954443328  -10.55242967836   -0.04367284424    2.00000000000
   -10.55242967836   -6.32954443328   -0.04367284424    2.00000000000
   -10.55123381977    0.00000000000   -6.37814204923    2.00000000000
    -8.44098705582    6.33074029186   -6.37814204923    2.00000000000
    -6.33074029186    8.44098705582   -6.37814204923    2.00000000000
     0.00000000000   10.55123381977   -6.37814204923    2.00000000000
     6.33074029186    8.44098705582   -6.37814204923    2.00000000000
     8.44098705582    6.33074029186   -6.37814204923    2.00000000000
    10.55123381977    0.00000000000   -6.37814204923    2.00000000000
     8.44098705582   -6.33074029186   -6.37814204923    2.00000000000
     6.33074029186   -8.44098705582   -6.37814204923    2.00000000000
     0.00000000000  -10.55123381977   -6.37814204923    2.00000000000
    -6.33074029186   -8.44098705582   -6.37814204923    2.00000000000
    -8.44098705582   -6.33074029186   -6.37814204923    2.00000000000
   -10.55169157031    6.33028254133   -2.14923989662   -2.00000000000
    -6.33028254133   10.55169157031   -2.14923989662   -2.00000000000
     6.33028254133   10.55169157031   -2.14923989662   -2.00000000000
    10.55169157031    6.33028254133   -2.14923989662   -2.00000000000
    10.55169157031   -6.33028254133   -2.14923989662   -2.00000000000
     6.33028254133  -10.55169157031   -2.14923989662   -2.00000000000
    -6.33028254133  -10.55169157031   -2.14923989662   -2.00000000000
   -10.55169157031   -6.33028254133   -2.14923989662   -2.00000000000
   -10.55123381977    2.11024676395   -6.37814204923   -2.00000000000
    -2.11024676395   10.55123381977   -6.37814204923   -2.00000000000
     2.11024676395   10.55123381977   -6.37814204923   -2.00000000000
    10.55123381977    2.11024676395   -6.37814204923   -2.00000000000
    10.55123381977   -2.11024676395   -6.37814204923   -2.00000000000
     2.11024676395  -10.55123381977   -6.37814204923   -2.00000000000
    -2.11024676395  -10.55123381977   -6.37814204923   -2.00000000000
   -10.55123381977   -2.11024676395   -6.37814204923   -2.00000000000
   -12.66148058373    0.00000000000   -0.04269731856    2.00000000000
     0.00000000000   12.66148058373   -0.04269731856    2.00000000000
    12.66148058373    0.00000000000   -0.04269731856    2.00000000000
     0.00000000000  -12.66148058373   -0.04269731856    2.00000000000
    -8.44098705582    8.44098705582   -4.26789528527    2.00000000000
     8.44098705582    8.44098705582   -4.26789528527    2.00000000000
     8.44098705582   -8.44098705582   -4.26789528527    2.00000000000
    -8.44098705582   -8.44098705582   -4.26789528527    2.00000000000
   -12.66148058373    2.11209139723    0.00772802266   -2.00000000000
    -2.11209139723   12.66148058373    0.00772802266   -2.00000000000
     2.11209139723   12.66148058373    0.00772802266   -2.00000000000
    12.66148058373    2.11209139723    0.00772802266   -2.00000000000
    12.66148058373   -2.11209139723    0.00772802266   -2.00000000000
     2.11209139723  -12.66148058373    0.00772802266   -2.00000000000
    -2.11209139723  -12.66148058373    0.00772802266   -2.00000000000
   -12.66148058373   -2.11209139723    0.00772802266   -2.00000000000
   -12.66148058373    0.00000000000   -2.15129719490   -2.00000000000
     0.00000000000   12.66148058373   -2.15129719490   -2.00000000000
    12.66148058373    0.00000000000   -2.15129719490   -2.00000000000
     0.00000000000  -12.66148058373   -2.15129719490   -2.00000000000
   -12.66148058373    2.10973412517   -2.14445912302    2.00000000000
    -2.10973412517   12.66148058373   -2.14445912302    2.00000000000
     2.10973412517   12.66148058373   -2.14445912302    2.00000000000
    12.66148058373    2.10973412517   -2.14445912302    2.00000000000
    12.66148058373   -2.10973412517   -2.14445912302    2.00000000000
     2.10973412517  -12.66148058373   -2.14445912302    2.00000000000
    -2.10973412517  -12.66148058373   -2.14445912302    2.00000000000
   -12.66148058373   -2.10973412517   -2.14445912302    2.00000000000
   -10.55123381977    6.33074029186   -4.26789528527    2.00000000000
    -6.33074029186   10.55123381977   -4.26789528527    2.00000000000
     6.33074029186   10.55123381977   -4.26789528527    2.00000000000
    10.55123381977    6.33074029186   -4.26789528527    2.00000000000
    10.55123381977   -6.33074029186   -4.26789528527    2.00000000000
     6.33074029186  -10.55123381977   -4.26789528527    2.00000000000
    -6.33074029186  -10.55123381977   -4.26789528527    2.00000000000
   -10.55123381977   -6.33074029186   -4.26789528527    2.00000000000
   -10.55123381977    4.22049352791   -6.37814204923    2.00000000000
    -4.22049352791   10.55123381977   -6.37814204923    2.00000000000
     4.22049352791   10.55123381977   -6.37814204923    2.00000000000
    10.55123381977    4.22049352791   -6.37814204923    2.00000000000
    10.55123381977   -4.22049352791   -6.37814204923    2.00000000000
     4.22049352791  -10.55123381977   -6.37814204923    2.00000000000
    -4.22049352791  -10.55123381977   -6.37814204923    2.00000000000
   -10.55123381977   -4.22049352791   -6.37814204923    2.00000000000
   -12.66148058373    4.22049352791   -0.03992370948    2.00000000000
    -4.22049352791   12.66148058373   -0.03992370948    2.00000000000
     4.22049352791   12.66148058373   -0.03992370948    2.00000000000
    12.66148058373    4.22049352791   -0.03992370948    2.00000000000
    12.66148058373   -4.22049352791   -0.03992370948    2.00000000000
     4.22049352791  -12.66148058373   -0.03992370948    2.00000000000
    -4.22049352791  -12.66148058373   -0.03992370948    2.00000000000
   -12.66148058373   -4.22049352791   -0.03992370948    2.00000000000
   -12.66148058373    0.00000000000   -4.26789528527    2.00000000000
     0.00000000000   12.66148058373   -4.26789528527    2.00000000000
    12.66148058373    0.00000000000   -4.26789528527    2.00000000000
     0.00000000000  -12.66148058373   -4.26789528527    2.00000000000
   -12.66148058373    4.22049352791   -2.15028985266   -2.00000000000
    -4.22049352791   12.66148058373   -2.15028985266   -2.00000000000
     4.22049352791   12.66148058373   -2.15028985266   -2.00000000000
    12.66148058373    4.22049352791   -2.15028985266   -2.00000000000
    12.66148058373   -4.22049352791   -2.15028985266   -2.00000000000
     4.22049352791  -12.66148058373   -2.15028985266   -2.00000000000
    -4.22049352791  -12.66148058373   -2.15028985266   -2.00000000000
   -12.66148058373   -4.22049352791   -2.15028985266   -2.00000000000
   -10.56117131241    8.44098705582    0.00567209089   -2.00000000000
    -8.44098705582   10.56117131241    0.00567209089   -2.00000000000
     8.44098705582   10.56117131241    0.00567209089   -2.00000000000
    10.56117131241    8.44098705582    0.00567209089   -2.00000000000
    10.56117131241   -8.44098705582    0.00567209089   -2.00000000000
     8.44098705582  -10.56117131241    0.00567209089   -2.00000000000
    -8.44098705582  -10.56117131241    0.00567209089   -2.00000000000
   -10.56117131241   -8.44098705582    0.00567209089   -2.00000000000
   -12.66148058373    2.11024676395   -4.26789528527   -2.00000000000
    -2.11024676395   12.66148058373   -4.26789528527   -2.00000000000
     2.11024676395   12.66148058373   -4.26789528527   -2.00000000000
    12.66148058373    2.11024676395   -4.26789528527   -2.00000000000
    12.66148058373   -2.11024676395   -4.26789528527   -2.00000000000
     2.11024676395  -12.66148058373   -4.26789528527   -2.00000000000
    -2.11024676395  -12.66148058373   -4.26789528527   -2.00000000000
   -12.66148058373   -2.11024676395   -4.26789528527   -2.00000000000
    -8.44098705582    8.44098705582   -6.37814204923   -2.00000000000
     8.44098705582    8.44098705582   -6.37814204923   -2.00000000000
     8.44098705582   -8.44098705582   -6.37814204923   -2.00000000000
    -8.44098705582   -8.44098705582   -6.37814204923   -2.00000000000
   -10.54803992736    8.44098705582   -2.14155206950    2.00000000000
    -8.44098705582   10.54803992736   -2.14155206950    2.00000000000
     8.44098705582   10.54803992736   -2.14155206950    2.00000000000
    10.54803992736    8.44098705582   -2.14155206950    2.00000000000
    10.54803992736   -8.44098705582   -2.14155206950    2.00000000000
     8.44098705582  -10.54803992736   -2.14155206950    2.00000000000
    -8.44098705582  -10.54803992736   -2.14155206950    2.00000000000
   -10.54803992736   -8.44098705582   -2.14155206950    2.00000000000
   -10.55123381977    6.33074029186   -6.37814204923   -2.00000000000
    -6.33074029186   10.55123381977   -6.37814204923   -2.00000000000
     6.33074029186   10.55123381977   -6.37814204923   -2.00000000000
    10.55123381977    6.33074029186   -6.37814204923   -2.00000000000
    10.55123381977   -6.33074029186   -6.37814204923   -2.00000000000
     6.33074029186  -10.55123381977   -6.37814204923   -2.00000000000
    -6.33074029186  -10.55123381977   -6.37814204923   -2.00000000000
   -10.55123381977   -6.33074029186   -6.37814204923   -2.00000000000
   -12.66148058373    4.22049352791   -4.26789528527    2.00000000000
    -4.22049352791   12.66148058373   -4.26789528527    2.00000000000
     4.22049352791   12.66148058373   -4.26789528527    2.00000000000
    12.66148058373    4.22049352791   -4.26789528527    2.00000000000
    12.66148058373   -4.22049352791   -4.26789528527    2.00000000000
     4.22049352791  -12.66148058373   -4.26789528527    2.00000000000
    -4.22049352791  -12.66148058373   -4.26789528527    2.00000000000
   -12.66148058373   -4.22049352791   -4.26789528527    2.00000000000
   -12.66148058373    6.32889565859    0.00772802266   -2.00000000000
    -6.32889565859   12.66148058373    0.00772802266   -2.00000000000
     6.32889565859   12.66148058373    0.00772802266   -2.00000000000
    12.66148058373    6.32889565859    0.00772802266   -2.00000000000
    12.66148058373   -6.32889565859    0.00772802266   -2.00000000000
     6.32889565859  -12.66148058373    0.00772802266   -2.00000000000
    -6.32889565859  -12.66148058373    0.00772802266   -2.00000000000
   -12.66148058373   -6.32889565859    0.00772802266   -2.00000000000
   -10.55123381977    8.44098705582   -4.26789528527   -2.00000000000
    -8.44098705582   10.55123381977   -4.26789528527   -2.00000000000
     8.44098705582   10.55123381977   -4.26789528527   -2.00000000000
    10.55123381977    8.44098705582   -4.26789528527   -2.00000000000
    10.55123381977   -8.44098705582   -4.26789528527   -2.00000000000
     8.44098705582  -10.55123381977   -4.26789528527   -2.00000000000
    -8.44098705582  -10.55123381977   -4.26789528527   -2.00000000000
   -10.55123381977   -8.44098705582   -4.26789528527   -2.00000000000
   -12.66148058373    0.00000000000   -6.37814204923   -2.00000000000
     0.00000000000   12.66148058373   -6.37814204923   -2.00000000000
    12.66148058373    0.00000000000   -6.37814204923   -2.00000000000
     0.00000000000  -12.66148058373   -6.37814204923   -2.00000000000
   -12.66148058373    6.33125293065   -2.14445912302    2.00000000000
    -6.33125293065   12.66148058373   -2.14445912302    2.00000000000
     6.33125293065   12.66148058373   -2.14445912302    2.00000000000
    12.66148058373    6.33125293065   -2.14445912302    2.00000000000
    12.66148058373   -6.33125293065   -2.14445912302    2.00000000000
     6.33125293065  -12.66148058373   -2.14445912302    2.00000000000
    -6.33125293065  -12.66148058373   -2.14445912302    2.00000000000
   -12.66148058373   -6.33125293065   -2.14445912302    2.00000000000
   -12.66148058373    2.11024676395   -6.37814204923    2.00000000000
    -2.11024676395   12.66148058373   -6.37814204923    2.00000000000
     2.11024676395   12.66148058373   -6.37814204923    2.00000000000
    12.66148058373    2.11024676395   -6.37814204923    2.00000000000
    12.66148058373   -2.11024676395   -6.37814204923    2.00000000000
     2.11024676395  -12.66148058373   -6.37814204923    2.00000000000
    -2.11024676395  -12.66148058373   -6.37814204923    2.00000000000
   -12.66148058373   -2.11024676395   -6.37814204923    2.00000000000
   -14.76178985505    0.00000000000    0.00567209089   -2.00000000000
     0.00000000000   14.76178985505    0.00567209089   -2.00000000000
    14.76178985505    0.00000000000    0.00567209089   -2.00000000000
     0.00000000000  -14.76178985505    0.00567209089   -2.00000000000
   -12.66148058373    6.33074029186   -4.26789528527   -2.00000000000
    -6.33074029186   12.66148058373   -4.26789528527   -2.00000000000
     6.33074029186   12.66148058373   -4.26789528527   -2.00000000000
    12.66148058373    6.33074029186   -4.26789528527   -2.00000000000
    12.66148058373   -6.33074029186   -4.26789528527   -2.00000000000
     6.33074029186  -12.66148058373   -4.26789528527   -2.00000000000
    -6.33074029186  -12.66148058373   -4.26789528527   -2.00000000000
   -12.66148058373   -6.33074029186   -4.26789528527   -2.00000000000
   -12.66148058373    4.22049352791   -6.37814204923   -2.00000000000
    -4.22049352791   12.66148058373   -6.37814204923   -2.00000000000
     4.22049352791   12.66148058373   -6.37814204923   -2.00000000000
    12.66148058373    4.22049352791   -6.37814204923   -2.00000000000
    12.66148058373   -4.22049352791   -6.37814204923   -2.00000000000
     4.22049352791  -12.66148058373   -6.37814204923   -2.00000000000
    -4.22049352791  -12.66148058373   -6.37814204923   -2.00000000000
   -12.66148058373   -4.22049352791   -6.37814204923   -2.00000000000
   -14.77053148910    2.11144262254   -0.04367284424    2.00000000000
    -2.11144262254   14.77053148910   -0.04367284424    2.00000000000
     2.11144262254   14.77053148910   -0.04367284424    2.00000000000
    14.77053148910    2.11144262254   -0.04367284424    2.00000000000
    14.77053148910   -2.11144262254   -0.04367284424    2.00000000000
     2.11144262254  -14.77053148910   -0.04367284424    2.00000000000
    -2.11144262254  -14.77053148910   -0.04367284424    2.00000000000
   -14.77053148910   -2.11144262254   -0.04367284424    2.00000000000
   -10.55242967836   10.55242967836   -0.04367284424    2.00000000000
    10.55242967836   10.55242967836   -0.04367284424    2.00000000000
    10.55242967836  -10.55242967836   -0.04367284424    2.00000000000
   -10.55242967836  -10.55242967836   -0.04367284424    2.00000000000
   -14.77492124009    0.00000000000   -2.14155206950    2.00000000000
     0.00000000000   14.77492124009   -2.14155206950    2.00000000000
    14.77492124009    0.00000000000   -2.14155206950    2.00000000000
     0.00000000000  -14.77492124009   -2.14155206950    2.00000000000
   -10.55123381977    8.44098705582   -6.37814204923    2.00000000000
    -8.44098705582   10.55123381977   -6.37814204923    2.00000000000
     8.44098705582   10.55123381977   -6.37814204923    2.00000000000
    10.55123381977    8.44098705582   -6.37814204923    2.00000000000
    10.55123381977   -8.44098705582   -6.37814204923    2.00000000000
     8.44098705582  -10.55123381977   -6.37814204923    2.00000000000
    -8.44098705582  -10.55123381977   -6.37814204923    2.00000000000
   -10.55123381977   -8.44098705582   -6.37814204923    2.00000000000
   -14.77126959714    2.11070451449   -2.14923989662   -2.00000000000
    -2.11070451449   14.77126959714   -2.14923989662   -2.00000000000
     2.11070451449   14.77126959714   -2.14923989662   -2.00000000000
    14.77126959714    2.11070451449   -2.14923989662   -2.00000000000
    14.77126959714   -2.11070451449   -2.14923989662   -2.00000000000
     2.11070451449  -14.77126959714   -2.14923989662   -2.00000000000
    -2.11070451449  -14.77126959714   -2.14923989662   -2.00000000000
   -14.77126959714   -2.11070451449   -2.14923989662   -2.00000000000
   -10.55169157031   10.55169157031   -2.14923989662   -2.00000000000
    10.55169157031   10.55169157031   -2.14923989662   -2.00000000000
    10.55169157031  -10.55169157031   -2.14923989662   -2.00000000000
   -10.55169157031  -10.55169157031   -2.14923989662   -2.00000000000
   -12.66148058373    8.44098705582   -0.04269731856    2.00000000000
    -8.44098705582   12.66148058373   -0.04269731856    2.00000000000
     8.44098705582   12.66148058373   -0.04269731856    2.00000000000
    12.66148058373    8.44098705582   -0.04269731856    2.00000000000
    12.66148058373   -8.44098705582   -0.04269731856    2.00000000000
     8.44098705582  -12.66148058373   -0.04269731856    2.00000000000
    -8.44098705582  -12.66148058373   -0.04269731856    2.00000000000
   -12.66148058373   -8.44098705582   -0.04269731856    2.00000000000
   -14.76988271440    4.22049352791    0.00772802266   -2.00000000000
    -4.22049352791   14.76988271440    0.00772802266   -2.00000000000
     4.22049352791   14.76988271440    0.00772802266   -2.00000000000
    14.76988271440    4.22049352791    0.00772802266   -2.00000000000
    14.76988271440   -4.22049352791    0.00772802266   -2.00000000000
     4.22049352791  -14.76988271440    0.00772802266   -2.00000000000
    -4.22049352791  -14.76988271440    0.00772802266   -2.00000000000
   -14.76988271440   -4.22049352791    0.00772802266   -2.00000000000
   -12.66148058373    8.44098705582   -2.15129719490   -2.00000000000
    -8.44098705582   12.66148058373   -2.15129719490   -2.00000000000
     8.44098705582   12.66148058373   -2.15129719490   -2.00000000000
    12.66148058373    8.44098705582   -2.15129719490   -2.00000000000
    12.66148058373   -8.44098705582   -2.15129719490   -2.00000000000
     8.44098705582  -12.66148058373   -2.15129719490   -2.00000000000
    -8.44098705582  -12.66148058373   -2.15129719490   -2.00000000000
   -12.66148058373   -8.44098705582   -2.15129719490   -2.00000000000
   -14.77172734768    0.00000000000   -4.26789528527   -2.00000000000
     0.00000000000   14.77172734768   -4.26789528527   -2.00000000000
    14.77172734768    0.00000000000   -4.26789528527   -2.00000000000
     0.00000000000  -14.77172734768   -4.26789528527   -2.00000000000
   -14.77223998647    4.22049352791   -2.14445912302    2.00000000000
    -4.22049352791   14.77223998647   -2.14445912302    2.00000000000
     4.22049352791   14.77223998647   -2.14445912302    2.00000000000
    14.77223998647    4.22049352791   -2.14445912302    2.00000000000
    14.77223998647   -4.22049352791   -2.14445912302    2.00000000000
     4.22049352791  -14.77223998647   -2.14445912302    2.00000000000
    -4.22049352791  -14.77223998647   -2.14445912302    2.00000000000
   -14.77223998647   -4.22049352791   -2.14445912302    2.00000000000
   -14.77172734768    2.11024676395   -4.26789528527    2.00000000000
   -10.55123381977   10.55123381977   -4.26789528527    2.00000000000
    -2.11024676395   14.77172734768   -4.26789528527    2.00000000000
     2.11024676395   14.77172734768   -4.26789528527    2.00000000000
    10.55123381977   10.55123381977   -4.26789528527    2.00000000000
    14.77172734768    2.11024676395   -4.26789528527    2.00000000000
    14.77172734768   -2.11024676395   -4.26789528527    2.00000000000
    10.55123381977  -10.55123381977   -4.26789528527    2.00000000000
     2.11024676395  -14.77172734768   -4.26789528527    2.00000000000
    -2.11024676395  -14.77172734768   -4.26789528527    2.00000000000
   -10.55123381977  -10.55123381977   -4.26789528527    2.00000000000
   -14.77172734768   -2.11024676395   -4.26789528527    2.00000000000
   -12.66148058373    6.33074029186   -6.37814204923    2.00000000000
    -6.33074029186   12.66148058373   -6.37814204923    2.00000000000
     6.33074029186   12.66148058373   -6.37814204923    2.00000000000
    12.66148058373    6.33074029186   -6.37814204923    2.00000000000
    12.66148058373   -6.33074029186   -6.37814204923    2.00000000000
     6.33074029186  -12.66148058373   -6.37814204923    2.00000000000
    -6.33074029186  -12.66148058373   -6.37814204923    2.00000000000
   -12.66148058373   -6.33074029186   -6.37814204923    2.00000000000
   -12.66148058373    8.44098705582   -4.26789528527    2.00000000000
    -8.44098705582   12.66148058373   -4.26789528527    2.00000000000
     8.44098705582   12.66148058373   -4.26789528527    2.00000000000
    12.66148058373    8.44098705582   -4.26789528527    2.00000000000
    12.66148058373   -8.44098705582   -4.26789528527    2.00000000000
     8.44098705582  -12.66148058373   -4.26789528527    2.00000000000
    -8.44098705582  -12.66148058373   -4.26789528527    2.00000000000
   -12.66148058373   -8.44098705582   -4.26789528527    2.00000000000
   -14.77172734768    4.22049352791   -4.26789528527   -2.00000000000
    -4.22049352791   14.77172734768   -4.26789528527   -2.00000000000
     4.22049352791   14.77172734768   -4.26789528527   -2.00000000000
    14.77172734768    4.22049352791   -4.26789528527   -2.00000000000
    14.77172734768   -4.22049352791   -4.26789528527   -2.00000000000
     4.22049352791  -14.77172734768   -4.26789528527   -2.00000000000
    -4.22049352791  -14.77172734768   -4.26789528527   -2.00000000000
   -14.77172734768   -4.22049352791   -4.26789528527   -2.00000000000
   -14.77053148910    6.32954443328   -0.04367284424    2.00000000000
    -6.32954443328   14.77053148910   -0.04367284424    2.00000000000
     6.32954443328   14.77053148910   -0.04367284424    2.00000000000
    14.77053148910    6.32954443328   -0.04367284424    2.00000000000
    14.77053148910   -6.32954443328   -0.04367284424    2.00000000000
     6.32954443328  -14.77053148910   -0.04367284424    2.00000000000
    -6.32954443328  -14.77053148910   -0.04367284424    2.00000000000
   -14.77053148910   -6.32954443328   -0.04367284424    2.00000000000
   -14.77172734768    0.00000000000   -6.37814204923    2.00000000000
     0.00000000000   14.77172734768   -6.37814204923    2.00000000000
    14.77172734768    0.00000000000   -6.37814204923    2.00000000000
     0.00000000000  -14.77172734768   -6.37814204923    2.00000000000
   -14.77126959714    6.33028254133   -2.14923989662   -2.00000000000
    -6.33028254133   14.77126959714   -2.14923989662   -2.00000000000
     6.33028254133   14.77126959714   -2.14923989662   -2.00000000000
    14.77126959714    6.33028254133   -2.14923989662   -2.00000000000
    14.77126959714   -6.33028254133   -2.14923989662   -2.00000000000
     6.33028254133  -14.77126959714   -2.14923989662   -2.00000000000
    -6.33028254133  -14.77126959714   -2.14923989662   -2.00000000000
   -14.77126959714   -6.33028254133   -2.14923989662   -2.00000000000
   -14.77172734768    2.11024676395   -6.37814204923   -2.00000000000
   -10.55123381977   10.55123381977   -6.37814204923   -2.00000000000
    -2.11024676395   14.77172734768   -6.37814204923   -2.00000000000
     2.11024676395   14.77172734768   -6.37814204923   -2.00000000000
    10.55123381977   10.55123381977   -6.37814204923   -2.00000000000
    14.77172734768    2.11024676395   -6.37814204923   -2.00000000000
    14.77172734768   -2.11024676395   -6.37814204923   -2.00000000000
    10.55123381977  -10.55123381977   -6.37814204923   -2.00000000000
     2.11024676395  -14.77172734768   -6.37814204923   -2.00000000000
    -2.11024676395  -14.77172734768   -6.37814204923   -2.00000000000
   -10.55123381977  -10.55123381977   -6.37814204923   -2.00000000000
   -14.77172734768   -2.11024676395   -6.37814204923   -2.00000000000
   -12.66148058373   10.55307845305    0.00772802266   -2.00000000000
   -10.55307845305   12.66148058373    0.00772802266   -2.00000000000
    10.55307845305   12.66148058373    0.00772802266   -2.00000000000
    12.66148058373   10.55307845305    0.00772802266   -2.00000000000
    12.66148058373  -10.55307845305    0.00772802266   -2.00000000000
    10.55307845305  -12.66148058373    0.00772802266   -2.00000000000
   -10.55307845305  -12.66148058373    0.00772802266   -2.00000000000
   -12.66148058373  -10.55307845305    0.00772802266   -2.00000000000
   -12.66148058373    8.44098705582   -6.37814204923   -2.00000000000
    -8.44098705582   12.66148058373   -6.37814204923   -2.00000000000
     8.44098705582   12.66148058373   -6.37814204923   -2.00000000000
    12.66148058373    8.44098705582   -6.37814204923   -2.00000000000
    12.66148058373   -8.44098705582   -6.37814204923   -2.00000000000
     8.44098705582  -12.66148058373   -6.37814204923   -2.00000000000
    -8.44098705582  -12.66148058373   -6.37814204923   -2.00000000000
   -12.66148058373   -8.44098705582   -6.37814204923   -2.00000000000
   -12.66148058373   10.55072118099   -2.14445912302    2.00000000000
   -10.55072118099   12.66148058373   -2.14445912302    2.00000000000
    10.55072118099   12.66148058373   -2.14445912302    2.00000000000
    12.66148058373   10.55072118099   -2.14445912302    2.00000000000
    12.66148058373  -10.55072118099   -2.14445912302    2.00000000000
    10.55072118099  -12.66148058373   -2.14445912302    2.00000000000
   -10.55072118099  -12.66148058373   -2.14445912302    2.00000000000
   -12.66148058373  -10.55072118099   -2.14445912302    2.00000000000
   -14.77172734768    6.33074029186   -4.26789528527    2.00000000000
    -6.33074029186   14.77172734768   -4.26789528527    2.00000000000
     6.33074029186   14.77172734768   -4.26789528527    2.00000000000
    14.77172734768    6.33074029186   -4.26789528527    2.00000000000
    14.77172734768   -6.33074029186   -4.26789528527    2.00000000000
     6.33074029186  -14.77172734768   -4.26789528527    2.00000000000
    -6.33074029186  -14.77172734768   -4.26789528527    2.00000000000
   -14.77172734768   -6.33074029186   -4.26789528527    2.00000000000
   -14.77172734768    4.22049352791   -6.37814204923    2.00000000000
    -4.22049352791   14.77172734768   -6.37814204923    2.00000000000
     4.22049352791   14.77172734768   -6.37814204923    2.00000000000
    14.77172734768    4.22049352791   -6.37814204923    2.00000000000
    14.77172734768   -4.22049352791   -6.37814204923    2.00000000000
     4.22049352791  -14.77172734768   -6.37814204923    2.00000000000
    -4.22049352791  -14.77172734768   -6.37814204923    2.00000000000
   -14.77172734768   -4.22049352791   -6.37814204923    2.00000000000
   -16.88197411163    0.00000000000    0.00000000000    2.00000000000
     0.00000000000   16.88197411163    0.00000000000    2.00000000000
    16.88197411163    0.00000000000    0.00000000000    2.00000000000
     0.00000000000  -16.88197411163    0.00000000000    2.00000000000
   -14.76178985505    8.44098705582    0.00567209089   -2.00000000000
    -8.44098705582   14.76178985505    0.00567209089   -2.00000000000
     8.44098705582   14.76178985505    0.00567209089   -2.00000000000
    14.76178985505    8.44098705582    0.00567209089   -2.00000000000
    14.76178985505   -8.44098705582    0.00567209089   -2.00000000000
     8.44098705582  -14.76178985505    0.00567209089   -2.00000000000
    -8.44098705582  -14.76178985505    0.00567209089   -2.00000000000
   -14.76178985505   -8.44098705582    0.00567209089   -2.00000000000
   -16.88197411163    2.12018425659    0.00567209089   -2.00000000000
    -2.12018425659   16.88197411163    0.00567209089   -2.00000000000
     2.12018425659   16.88197411163    0.00567209089   -2.00000000000
    16.88197411163    2.12018425659    0.00567209089   -2.00000000000
    16.88197411163   -2.12018425659    0.00567209089   -2.00000000000
     2.12018425659  -16.88197411163    0.00567209089   -2.00000000000
    -2.12018425659  -16.88197411163    0.00567209089   -2.00000000000
   -16.88197411163   -2.12018425659    0.00567209089   -2.00000000000
   -16.88197411163    0.00000000000   -2.14129966123   -2.00000000000
     0.00000000000   16.88197411163   -2.14129966123   -2.00000000000
    16.88197411163    0.00000000000   -2.14129966123   -2.00000000000
     0.00000000000  -16.88197411163   -2.14129966123   -2.00000000000
   -12.66148058373   10.55123381977   -4.26789528527   -2.00000000000
   -10.55123381977   12.66148058373   -4.26789528527   -2.00000000000
    10.55123381977   12.66148058373   -4.26789528527   -2.00000000000
    12.66148058373   10.55123381977   -4.26789528527   -2.00000000000
    12.66148058373  -10.55123381977   -4.26789528527   -2.00000000000
    10.55123381977  -12.66148058373   -4.26789528527   -2.00000000000
   -10.55123381977  -12.66148058373   -4.26789528527   -2.00000000000
   -12.66148058373  -10.55123381977   -4.26789528527   -2.00000000000
   -16.88197411163    2.10705287155   -2.14155206950    2.00000000000
    -2.10705287155   16.88197411163   -2.14155206950    2.00000000000
     2.10705287155   16.88197411163   -2.14155206950    2.00000000000
    16.88197411163    2.10705287155   -2.14155206950    2.00000000000
    16.88197411163   -2.10705287155   -2.14155206950    2.00000000000
     2.10705287155  -16.88197411163   -2.14155206950    2.00000000000
    -2.10705287155  -16.88197411163   -2.14155206950    2.00000000000
   -16.88197411163   -2.10705287155   -2.14155206950    2.00000000000
   -14.77492124009    8.44098705582   -2.14155206950    2.00000000000
    -8.44098705582   14.77492124009   -2.14155206950    2.00000000000
     8.44098705582   14.77492124009   -2.14155206950    2.00000000000
    14.77492124009    8.44098705582   -2.14155206950    2.00000000000
    14.77492124009   -8.44098705582   -2.14155206950    2.00000000000
     8.44098705582  -14.77492124009   -2.14155206950    2.00000000000
    -8.44098705582  -14.77492124009   -2.14155206950    2.00000000000
   -14.77492124009   -8.44098705582   -2.14155206950    2.00000000000
   -14.77172734768    6.33074029186   -6.37814204923   -2.00000000000
    -6.33074029186   14.77172734768   -6.37814204923   -2.00000000000
     6.33074029186   14.77172734768   -6.37814204923   -2.00000000000
    14.77172734768    6.33074029186   -6.37814204923   -2.00000000000
    14.77172734768   -6.33074029186   -6.37814204923   -2.00000000000
     6.33074029186  -14.77172734768   -6.37814204923   -2.00000000000
    -6.33074029186  -14.77172734768   -6.37814204923   -2.00000000000
   -14.77172734768   -6.33074029186   -6.37814204923   -2.00000000000
   -16.88197411163    4.22049352791   -0.04269731856    2.00000000000
    -4.22049352791   16.88197411163   -0.04269731856    2.00000000000
     4.22049352791   16.88197411163   -0.04269731856    2.00000000000
    16.88197411163    4.22049352791   -0.04269731856    2.00000000000
    16.88197411163   -4.22049352791   -0.04269731856    2.00000000000
     4.22049352791  -16.88197411163   -0.04269731856    2.00000000000
    -4.22049352791  -16.88197411163   -0.04269731856    2.00000000000
   -16.88197411163   -4.22049352791   -0.04269731856    2.00000000000
   -16.88197411163    0.00000000000   -4.26789528527    2.00000000000
     0.00000000000   16.88197411163   -4.26789528527    2.00000000000
    16.88197411163    0.00000000000   -4.26789528527    2.00000000000
     0.00000000000  -16.88197411163   -4.26789528527    2.00000000000
   -16.88197411163    4.22049352791   -2.15129719490   -2.00000000000
    -4.22049352791   16.88197411163   -2.15129719490   -2.00000000000
     4.22049352791   16.88197411163   -2.15129719490   -2.00000000000
    16.88197411163    4.22049352791   -2.15129719490   -2.00000000000
    16.88197411163   -4.22049352791   -2.15129719490   -2.00000000000
     4.22049352791  -16.88197411163   -2.15129719490   -2.00000000000
    -4.22049352791  -16.88197411163   -2.15129719490   -2.00000000000
   -16.88197411163   -4.22049352791   -2.15129719490   -2.00000000000
   -16.88197411163    2.11024676395   -4.26789528527   -2.00000000000
   -14.77172734768    8.44098705582   -4.26789528527   -2.00000000000
    -8.44098705582   14.77172734768   -4.26789528527   -2.00000000000
    -2.11024676395   16.88197411163   -4.26789528527   -2.00000000000
     2.11024676395   16.88197411163   -4.26789528527   -2.00000000000
     8.44098705582   14.77172734768   -4.26789528527   -2.00000000000
    14.77172734768    8.44098705582   -4.26789528527   -2.00000000000
    16.88197411163    2.11024676395   -4.26789528527   -2.00000000000
    16.88197411163   -2.11024676395   -4.26789528527   -2.00000000000
    14.77172734768   -8.44098705582   -4.26789528527   -2.00000000000
     8.44098705582  -14.77172734768   -4.26789528527   -2.00000000000
     2.11024676395  -16.88197411163   -4.26789528527   -2.00000000000
    -2.11024676395  -16.88197411163   -4.26789528527   -2.00000000000
    -8.44098705582  -14.77172734768   -4.26789528527   -2.00000000000
   -14.77172734768   -8.44098705582   -4.26789528527   -2.00000000000
   -16.88197411163   -2.11024676395   -4.26789528527   -2.00000000000
   -12.66148058373   10.55123381977   -6.37814204923    2.00000000000
   -10.55123381977   12.66148058373   -6.37814204923    2.00000000000
    10.55123381977   12.66148058373   -6.37814204923    2.00000000000
    12.66148058373   10.55123381977   -6.37814204923    2.00000000000
    12.66148058373  -10.55123381977   -6.37814204923    2.00000000000
    10.55123381977  -12.66148058373   -6.37814204923    2.00000000000
   -10.55123381977  -12.66148058373   -6.37814204923    2.00000000000
   -12.66148058373  -10.55123381977   -6.37814204923    2.00000000000
   -12.66148058373   12.66148058373   -0.03992370948    2.00000000000
    12.66148058373   12.66148058373   -0.03992370948    2.00000000000
    12.66148058373  -12.66148058373   -0.03992370948    2.00000000000
   -12.66148058373  -12.66148058373   -0.03992370948    2.00000000000
   -16.88197411163    4.22049352791   -4.26789528527    2.00000000000
    -4.22049352791   16.88197411163   -4.26789528527    2.00000000000
     4.22049352791   16.88197411163   -4.26789528527    2.00000000000
    16.88197411163    4.22049352791   -4.26789528527    2.00000000000
    16.88197411163   -4.22049352791   -4.26789528527    2.00000000000
     4.22049352791  -16.88197411163   -4.26789528527    2.00000000000
    -4.22049352791  -16.88197411163   -4.26789528527    2.00000000000
   -16.88197411163   -4.22049352791   -4.26789528527    2.00000000000
   -16.88197411163    6.32080279923    0.00567209089   -2.00000000000
    -6.32080279923   16.88197411163    0.00567209089   -2.00000000000
     6.32080279923   16.88197411163    0.00567209089   -2.00000000000
    16.88197411163    6.32080279923    0.00567209089   -2.00000000000
    16.88197411163   -6.32080279923    0.00567209089   -2.00000000000
     6.32080279923  -16.88197411163    0.00567209089   -2.00000000000
    -6.32080279923  -16.88197411163    0.00567209089   -2.00000000000
   -16.88197411163   -6.32080279923    0.00567209089   -2.00000000000
   -12.66148058373   12.66148058373   -2.15028985266   -2.00000000000
    12.66148058373   12.66148058373   -2.15028985266   -2.00000000000
    12.66148058373  -12.66148058373   -2.15028985266   -2.00000000000
   -12.66148058373  -12.66148058373   -2.15028985266   -2.00000000000
   -16.88197411163    0.00000000000   -6.37814204923   -2.00000000000
     0.00000000000   16.88197411163   -6.37814204923   -2.00000000000
    16.88197411163    0.00000000000   -6.37814204923   -2.00000000000
     0.00000000000  -16.88197411163   -6.37814204923   -2.00000000000
   -14.77053148910   10.55242967836   -0.04367284424    2.00000000000
   -10.55242967836   14.77053148910   -0.04367284424    2.00000000000
    10.55242967836   14.77053148910   -0.04367284424    2.00000000000
    14.77053148910   10.55242967836   -0.04367284424    2.00000000000
[...]
 Number of NAFs:                274  (13.87%)
 CPU time [min]:  1108.540                   Wall time [min]:   157.753


 Direct DF-CCSD(T) calculation

 Convergence criterion:  1.0E-05

 Number of occupied/virtual/auxiliary orbitals:    27    84   274
    209.61 MB is the minimal memory requirement for (T)
    162.54 MB is the minimal memory requirement for CCSD

 MP2 correlation energy [au]:       -0.837259368246

 LMP2 domain correlation energy contribution [au]:       -0.057786378551

 CPU time [min]:  1108.582                   Wall time [min]:   157.758


 Starting CCSD iterations...

                     Residual norm       Correlation Energy
 Iteration  1        0.192329318244       -0.839516348069
 Iteration  2        0.056829512267       -0.858525620495
 Iteration  3        0.020639263780       -0.862076928467
 Iteration  4        0.005042805244       -0.862272956080
 Iteration  5        0.001577206639       -0.862240410478
 Iteration  6        0.000498455909       -0.862239708692
 Iteration  7        0.000189274317       -0.862233337152
 Iteration  8        0.000062731770       -0.862231832747

 CCSD iteration has converged in  8 steps.
      337.54 MB memory was utilized by CCSD

 T1 diagnostic:      1.287E-02            D1 diagnostic:      4.072E-02

 T1 contribution [au]:                         0.000000000000
 CCSD correlation energy [au]:                -0.057760005723

 CPU time [min]:  1109.941                   Wall time [min]:   157.932

 Calculation of (T) correction...

 Laplace threshold, nquadmin:  1.00E-03   4
 Number of quadrature points:    4

      341.36 MB memory is utilized for (T)

 0%       25%       50%       75%       100%
 |---------|---------|---------|---------|

 (T) correction [au]:                   -0.001685005689
 CCSD(T) correlation energy [au]:       -0.059445011411

 CPU time [min]:  1111.156                   Wall time [min]:   158.087

 MO:    96
 Number of atoms in domain:      36
 Number of atomic orbitals:     783
 Number of atoms for local DF:   34
 Number of fitting functions:  2484  (94.52%)
 Number of occupied orbitals:    46
 Number of virtual  orbitals:   612
 Number of Cholesky vectors:      7
 MP2 energy in ED [au]:          -0.058176434489
 Number of occupied LNOs:        28  (60.87%)
 Number of virtual  LNOs:        89  (14.54%)
 Number of Cholesky vectors:      5
 MP2 energy in LIS [au]:         -0.058063873752
 Correction for frozen LNO [au]: -0.000112560737     (0.193%)
 Number of NAFs:                294  (11.84%)
 CPU time [min]:  1115.987                   Wall time [min]:   158.861


 Direct DF-CCSD(T) calculation

 Convergence criterion:  1.0E-05

 Number of occupied/virtual/auxiliary orbitals:    28    89   294
    240.09 MB is the minimal memory requirement for (T)
    182.76 MB is the minimal memory requirement for CCSD

 MP2 correlation energy [au]:       -0.979674462397

 LMP2 domain correlation energy contribution [au]:       -0.058087819884

 CPU time [min]:  1116.034                   Wall time [min]:   158.868


 Starting CCSD iterations...

                     Residual norm       Correlation Energy
 Iteration  1        0.206709714113       -0.968894035820
 Iteration  2        0.064797141012       -0.990345030828
 Iteration  3        0.023515050297       -0.995213219906
 Iteration  4        0.005053822854       -0.995284759835
 Iteration  5        0.001626048223       -0.995254635398
 Iteration  6        0.000441865151       -0.995272520906
 Iteration  7        0.000169412933       -0.995266395897
 Iteration  8        0.000051245043       -0.995263213942

 CCSD iteration has converged in  8 steps.
      405.26 MB memory was utilized by CCSD

 T1 diagnostic:      1.245E-02            D1 diagnostic:      4.061E-02

 T1 contribution [au]:                         0.000000000000
 CCSD correlation energy [au]:                -0.058162539658

 CPU time [min]:  1117.804                   Wall time [min]:   159.094

 Calculation of (T) correction...

 Laplace threshold, nquadmin:  1.00E-03   4
 Number of quadrature points:    4

      402.80 MB memory is utilized for (T)

 0%       25%       50%       75%       100%
 |---------|---------|---------|---------|

 (T) correction [au]:                   -0.001756014828
 CCSD(T) correlation energy [au]:       -0.059918554487

 CPU time [min]:  1119.500                   Wall time [min]:   159.310

 MO:    97
 Number of atoms in domain:      36
 Number of atomic orbitals:     783
 Number of atoms for local DF:   32
 Number of fitting functions:  2340  (89.04%)
 Number of occupied orbitals:    63
 Number of virtual  orbitals:   600
 Number of Cholesky vectors:      7
 MP2 energy in ED [au]:          -0.055916147905
 Number of occupied LNOs:        32  (50.79%)
 Number of virtual  LNOs:        95  (15.83%)
 Number of Cholesky vectors:      5
 MP2 energy in LIS [au]:         -0.055758452061
 Correction for frozen LNO [au]: -0.000157695844     (0.282%)
 Number of NAFs:                321  (13.72%)
 CPU time [min]:  1124.513                   Wall time [min]:   160.087


 Direct DF-CCSD(T) calculation

 Convergence criterion:  1.0E-05

 Number of occupied/virtual/auxiliary orbitals:    32    95   321
    303.24 MB is the minimal memory requirement for (T)
    229.93 MB is the minimal memory requirement for CCSD

 MP2 correlation energy [au]:       -1.061436508520

 LMP2 domain correlation energy contribution [au]:       -0.055786818430

 CPU time [min]:  1124.571                   Wall time [min]:   160.100


 Starting CCSD iterations...

                     Residual norm       Correlation Energy
 Iteration  1        0.207474429746       -1.063162306300
 Iteration  2        0.059283569886       -1.085236081626
 Iteration  3        0.020639731408       -1.089228986863
 Iteration  4        0.003953898999       -1.089336223461
 Iteration  5        0.001148212629       -1.089325943613
 Iteration  6        0.000280097051       -1.089329635585
 Iteration  7        0.000090286064       -1.089326307474

 CCSD iteration has converged in  7 steps.
      519.33 MB memory was utilized by CCSD

 T1 diagnostic:      1.171E-02            D1 diagnostic:      3.854E-02

 T1 contribution [au]:                         0.000000000000
 CCSD correlation energy [au]:                -0.056266045748

 CPU time [min]:  1127.050                   Wall time [min]:   160.451

 Calculation of (T) correction...

 Laplace threshold, nquadmin:  1.00E-03   4
 Number of quadrature points:    4

      539.09 MB memory is utilized for (T)

 0%       25%       50%       75%       100%
 |---------|---------|---------|---------|

 (T) correction [au]:                   -0.001443736648
 CCSD(T) correlation energy [au]:       -0.057709782397

 CPU time [min]:  1129.863                   Wall time [min]:   160.808

 MO:    98
 Number of atoms in domain:      36
 Number of atomic orbitals:     783
 Number of atoms for local DF:   32
 Number of fitting functions:  2340  (89.04%)
 Number of occupied orbitals:    63
 Number of virtual  orbitals:   600
 Number of Cholesky vectors:      7
 MP2 energy in ED [au]:          -0.055916068814
 Number of occupied LNOs:        32  (50.79%)
 Number of virtual  LNOs:        95  (15.83%)
 Number of Cholesky vectors:      5
 MP2 energy in LIS [au]:         -0.055758344563
 Correction for frozen LNO [au]: -0.000157724251     (0.282%)
 Number of NAFs:                321  (13.72%)
 CPU time [min]:  1134.871                   Wall time [min]:   161.585


 Direct DF-CCSD(T) calculation

 Convergence criterion:  1.0E-05

 Number of occupied/virtual/auxiliary orbitals:    32    95   321
    303.24 MB is the minimal memory requirement for (T)
    229.93 MB is the minimal memory requirement for CCSD

 MP2 correlation energy [au]:       -1.061468433875

 LMP2 domain correlation energy contribution [au]:       -0.055786708552

 CPU time [min]:  1134.930                   Wall time [min]:   161.597


 Starting CCSD iterations...

                     Residual norm       Correlation Energy
 Iteration  1        0.207480251974       -1.063191678510
 Iteration  2        0.059287333010       -1.085266237385
 Iteration  3        0.020641237422       -1.089259548690
 Iteration  4        0.003954235970       -1.089366810861
 Iteration  5        0.001148308371       -1.089356544665
 Iteration  6        0.000280106309       -1.089360237017
 Iteration  7        0.000090288163       -1.089356909429

 CCSD iteration has converged in  7 steps.
      519.33 MB memory was utilized by CCSD

 T1 diagnostic:      1.171E-02            D1 diagnostic:      3.854E-02

 T1 contribution [au]:                         0.000000000000
 CCSD correlation energy [au]:                -0.056265945039

 CPU time [min]:  1137.421                   Wall time [min]:   161.950

 Calculation of (T) correction...

 Laplace threshold, nquadmin:  1.00E-03   4
 Number of quadrature points:    4

      539.09 MB memory is utilized for (T)

 0%       25%       50%       75%       100%
 |---------|---------|---------|---------|

 (T) correction [au]:                   -0.001443728070
 CCSD(T) correlation energy [au]:       -0.057709673110

 CPU time [min]:  1140.230                   Wall time [min]:   162.306

 MO:    99
 Number of atoms in domain:      35
 Number of atomic orbitals:     760
 Number of atoms for local DF:   30
 Number of fitting functions:  2192  (85.76%)
 Number of occupied orbitals:    48
 Number of virtual  orbitals:   572
 Number of Cholesky vectors:      7
 MP2 energy in ED [au]:          -0.056634140364
 Number of occupied LNOs:        28  (58.33%)
 Number of virtual  LNOs:        87  (15.21%)
 Number of Cholesky vectors:      5
 MP2 energy in LIS [au]:         -0.056509374802
 Correction for frozen LNO [au]: -0.000124765562     (0.220%)
 Number of NAFs:                284  (12.96%)
 CPU time [min]:  1143.978                   Wall time [min]:   162.909


 Direct DF-CCSD(T) calculation

 Convergence criterion:  1.0E-05

 Number of occupied/virtual/auxiliary orbitals:    28    87   284
    229.37 MB is the minimal memory requirement for (T)
    176.20 MB is the minimal memory requirement for CCSD

 MP2 correlation energy [au]:       -1.031371511347

 LMP2 domain correlation energy contribution [au]:       -0.056539033770

 CPU time [min]:  1144.022                   Wall time [min]:   162.914


 Starting CCSD iterations...

                     Residual norm       Correlation Energy
 Iteration  1        0.213772219530       -1.022048751345
 Iteration  2        0.064973442763       -1.044846728015
 Iteration  3        0.023172173545       -1.049663458458
 Iteration  4        0.004387939880       -1.049737124934
 Iteration  5        0.001315757258       -1.049742787693
 Iteration  6        0.000308942265       -1.049756764678
 Iteration  7        0.000104146071       -1.049752560682
 Iteration  8        0.000030975949       -1.049750285656

 CCSD iteration has converged in  8 steps.
      378.56 MB memory was utilized by CCSD

 T1 diagnostic:      1.225E-02            D1 diagnostic:      4.218E-02

 T1 contribution [au]:                         0.000000000000
 CCSD correlation energy [au]:                -0.057035816602

 CPU time [min]:  1145.662                   Wall time [min]:   163.123

 Calculation of (T) correction...

 Laplace threshold, nquadmin:  1.00E-03   4
 Number of quadrature points:    4

      382.42 MB memory is utilized for (T)

 0%       25%       50%       75%       100%
 |---------|---------|---------|---------|

 (T) correction [au]:                   -0.001521481808
 CCSD(T) correlation energy [au]:       -0.058557298410

 CPU time [min]:  1147.259                   Wall time [min]:   163.327

 MO:   100
 Number of atoms in domain:      33
 Number of atomic orbitals:     714
 Number of atoms for local DF:   14
 Number of fitting functions:  1024  (42.45%)
 Number of occupied orbitals:    27
 Number of virtual  orbitals:   285
 Number of Cholesky vectors:      6
 MP2 energy in ED [au]:          -0.056098268530
 Number of occupied LNOs:        17  (62.96%)
 Number of virtual  LNOs:        58  (20.35%)
 Number of Cholesky vectors:      5
 MP2 energy in LIS [au]:         -0.056029291088
 Correction for frozen LNO [au]: -0.000068977442     (0.123%)
 Number of NAFs:                180  (17.58%)
 CPU time [min]:  1147.911                   Wall time [min]:   163.436


 Direct DF-CCSD(T) calculation

 Convergence criterion:  1.0E-05

 Number of occupied/virtual/auxiliary orbitals:    17    58   180
     95.14 MB is the minimal memory requirement for (T)
     83.34 MB is the minimal memory requirement for CCSD

 MP2 correlation energy [au]:       -0.616307767257

 LMP2 domain correlation energy contribution [au]:       -0.056057922836

 CPU time [min]:  1147.924                   Wall time [min]:   163.437


 Starting CCSD iterations...

                     Residual norm       Correlation Energy
 Iteration  1        0.162414963570       -0.612157797391
 Iteration  2        0.049715664548       -0.624982036904
 Iteration  3        0.018016705576       -0.627790521289
 Iteration  4        0.003903030478       -0.627878087759
 Iteration  5        0.001202933664       -0.627860913817
 Iteration  6        0.000329453455       -0.627865456267
 Iteration  7        0.000120673888       -0.627861851456
 Iteration  8        0.000035365269       -0.627860944620

 CCSD iteration has converged in  8 steps.
      121.46 MB memory was utilized by CCSD

 T1 diagnostic:      1.263E-02            D1 diagnostic:      3.767E-02

 T1 contribution [au]:                         0.000000000000
 CCSD correlation energy [au]:                -0.056356301892

 CPU time [min]:  1148.117                   Wall time [min]:   163.462

 Calculation of (T) correction...

 Laplace threshold, nquadmin:  1.00E-03   4
 Number of quadrature points:    4

      118.53 MB memory is utilized for (T)

 0%       25%       50%       75%       100%
 |---------|---------|---------|---------|

 (T) correction [au]:                   -0.001415477078
 CCSD(T) correlation energy [au]:       -0.057771778970

 CPU time [min]:  1148.281                   Wall time [min]:   163.483

 **********************************************************************
 Dimensions of the extended domains:    Minimum / Average / Maximum

 Number of atoms in domain:                  33      35.4        36
 Number of atomic orbitals:                 714     768.3       783
 Number of fitting functions:              1024    2096.5      2628
 Number of occupied localized MOs:           27      51.2        84
 Number of PAOs:                            285     534.2       613
 Number of occupied LNOs:                    17      29.4        44
 Number of virtual  LNOs:                    58      90.1       129
 Number of NAFs:                            180     300.2       446

 **********************************************************************
 Distant (and weak) pair contributions, corrections

 Sum of pair energies [au]:                    -0.001566833593    (0.027%)
 Sum of energy corrections [au]:               -0.012336155184    (0.215%)
 Pair energies + LNO corrections [au]:         -0.013902988777
 Sum of LMP2 contributions [au]:               -5.737140499415

 **********************************************************************
  Time of manipulations in the EDs:      max CPU/Wall [s]  all CPU/Wall [min]

 PD construction & multipole pair E     290.26    36.80     4.84     0.61
 Construct MO basis of the ED             5.42     1.05     3.71     0.49
 (mu,nu|P) evaluation & trf 2 (ai|P)    146.18    18.36   127.47    15.98
 Evaluate MP2 energy of the ED           51.31     6.43    38.84     4.87
 Transformations to the LNO basis        13.71     1.74    10.92     1.37
 Build W_PQ (Jai or Jpi part)             1.85     0.23     1.43     0.18
 Evaluate MP2 energy of the LIS           1.19     0.15     0.66     0.08
 (mu,nu|P) evaluation & trf 2 J(abQ)    270.81    45.31   220.80    40.35
 Total of the above for all EDs         490.47    73.27   403.82    63.32

 **********************************************************************
 Maximum memory requirement [MB]:

 PD construction & multipole pair E         81.9
 AO integral evaluation in the EDs          61.5
 (mu,nu|P) evaluation & trf 2 (aI|P)      2797.5
 Evaluate MP2 energy in the EDs           2748.9
 Transformation to the LNO basis           841.5
 (mu,nu|P) to Jab transformation           615.3
 Evaluate MP2 energy in the LIS            883.0
 Minimum requirement for LIS CCSD          569.8
 Actually allocated  for LIS CCSD         1583.6
 Minimum requirement for LIS (T)           779.1
 Actually allocated  for LIS (T)          1633.8

 ======================================================================
 ======================================================================



 ======================================================================
 ======================================================================

 Final local CC results:

 Minimum number of correlated electrons:        34       ( 17.0%)
 Maximum number of correlated electrons:        88       ( 44.0%)
 Average number of correlated electrons:        58.9     ( 29.4%)
 Minimum number of correlated orbitals:         75       ( 10.5%)
 Maximum number of correlated orbitals:        173       ( 24.3%)
 Average number of correlated orbitals:        119.6     ( 16.8%)

 CPU time for integral calculations [min]:                  2.871
 Wall time for integral calculations [min]:                 1.731

 CPU time for SCF calculation [min]:                       67.605
 Wall time for SCF calculation [min]:                       8.564

 CPU time for orbital localization [min]:                   0.230
 Wall time for orbital localization [min]:                  0.182

 CPU time for integral transformations [min]:             419.564
 Wall time for integral transformations [min]:             65.352

 Reference energy [au]:                                -12966.281341943522

 LMP2 correlation energy [au]:                             -5.737140499415
 Total LMP2 energy [au]:                               -12972.018482442938

 Total MP2 correction for dropped NAFs [au]:                0.002478235510
 Total MP2 correction [au]:                                -0.011424753267

 CPU time for CCSD calculations [min]:                    341.783
 Total CPU time for CCSD [min]:                           832.054
 Wall time for CCSD calculations [min]:                    48.543
 Total wall time for CCSD [min]:                          124.373

 CCSD correlation energy [au]:                             -5.744958151793
 Total CCSD energy [au]:                               -12972.026300095315
 CCSD correlation energy + 0.5 MP2 corrections [au]:       -5.750670528426
 Total LNO-CCSD energy with MP2 corrections [au]:      -12972.032012471947

 CPU time for (T) corrections [min]:                      386.944
 Total CPU time for CCSD(T) [min]:                       1218.998
 Wall time for (T) corrections [min]:                      49.589
 Total wall time for CCSD(T) [min]:                       173.962

 Total (T) correlation energy contribution [au]:           -0.163638800962
 Total (T) correlation energy+0.5 MP2 correction [au]:     -0.169351177595
 CCSD(T) correlation energy [au]:                          -5.908596952754
 Total CCSD(T) energy [au]:                            -12972.189938896276
 CCSD(T) correlation energy + MP2 corrections [au]:        -5.920021706021
 Total LNO-CCSD(T) energy with MP2 corrections [au]:   -12972.201363649543

 ======================================================================
 ======================================================================

 ************************ 2024-11-25 19:06:29 *************************
                      Normal termination of mrcc.
 **********************************************************************
