 vasp.6.3.0 20Jan22 (build Mar 11 2022 13:48:16) complex

 executed on             LinuxIFC date 2023.12.26  18:08:52
 running on  304 total cores
 distrk:  each k-point on  304 cores,    1 groups
 distr:  one band on NCORE=   8 cores,   38 groups


--------------------------------------------------------------------------------------------------------


 INCAR:
   SYSTEM = MgO-rocksalt
   ISMEAR = 0
   SIGMA = 0.05
   EDIFF = 1E-7
   ALGO = ALL
   ISTART = 0
   IBRION = -1
   NSW = 0
   ISYM = 2
   ISIF = 2
   EDIFFG = -0.01
   DIPOL = 0.5 0.5 0.5
   IDIPOL = 3
   LDIPOL = .TRUE.
   LHFCALC = .TRUE.
   GGA = PE
   IVDW = 13
   VDW_S8 = 1.2007
   VDW_A1 = 0.4009
   VDW_A2 = 5.0293
   ENCUT = 600
   PREC = Accurate
   LASPH = .TRUE.
   LREAL = .FALSE.
   ISPIN = 1
   NELM = 200
   NELMIN = 8
   NCORE = 8
   KPAR = 1
   LWAVE = .FALSE.
   LCHARG = .FALSE.

 POTCAR:    PAW_PBE C 08Apr2002
 POTCAR:    PAW_PBE O 08Apr2002
 POTCAR:    PAW_PBE Mg_pv 13Apr2007
 POTCAR:    PAW_PBE O 08Apr2002
 -----------------------------------------------------------------------------
|                                                                             |
|           W    W    AA    RRRRR   N    N  II  N    N   GGGG   !!!           |
|           W    W   A  A   R    R  NN   N  II  NN   N  G    G  !!!           |
|           W    W  A    A  R    R  N N  N  II  N N  N  G       !!!           |
|           W WW W  AAAAAA  RRRRR   N  N N  II  N  N N  G  GGG   !            |
|           WW  WW  A    A  R   R   N   NN  II  N   NN  G    G                |
|           W    W  A    A  R    R  N    N  II  N    N   GGGG   !!!           |
|                                                                             |
|     For optimal performance we recommend to set                             |
|       NCORE = 2 up to number-of-cores-per-socket                            |
|     NCORE specifies how many cores store one orbital (NPAR=cpu/NCORE).      |
|     This setting can greatly improve the performance of VASP for DFT.       |
|     The default, NCORE=1 might be grossly inefficient on modern             |
|     multi-core architectures or massively parallel machines. Do your        |
|     own testing! More info at https://www.vasp.at/wiki/index.php/NCORE      |
|     Unfortunately you need to use the default for GW and RPA                |
|     calculations (for HF NCORE is supported but not extensively tested      |
|     yet).                                                                   |
|                                                                             |
 -----------------------------------------------------------------------------

 -----------------------------------------------------------------------------
|                                                                             |
|           W    W    AA    RRRRR   N    N  II  N    N   GGGG   !!!           |
|           W    W   A  A   R    R  NN   N  II  NN   N  G    G  !!!           |
|           W    W  A    A  R    R  N N  N  II  N N  N  G       !!!           |
|           W WW W  AAAAAA  RRRRR   N  N N  II  N  N N  G  GGG   !            |
|           WW  WW  A    A  R   R   N   NN  II  N   NN  G    G                |
|           W    W  A    A  R    R  N    N  II  N    N   GGGG   !!!           |
|                                                                             |
|     You have selected ISYM=2 for a HF type calculation. This will           |
|     symmetrize the charge density but not the exchange potential. I         |
|     suggest to use ISYM=3 instead. This uses symmetry to obtain the         |
|     orbitals at all k-points in the Brillouin zone, but does not apply      |
|     symmetry to the Hartree potential directly. The resultant charge        |
|     might have lower symmetry than the crystal but, at least, Hartree       |
|     and exchange are fully compatible.                                      |
|                                                                             |
 -----------------------------------------------------------------------------

 POTCAR:    PAW_PBE C 08Apr2002
   SHA256 =  253f7b50bb8d59471dbedb8285d89021f4a42ed1a2c5d38a03a736e69125dd95 C/POTCAR
   COPYR  = (c) Copyright 08Apr2002 Georg Kresse
   COPYR  = This file is part of the software VASP. Any use, copying, and all other rights are regul
   COPYR  = If you do not have a valid VASP license, you may not use, copy or distribute this file.
   VRHFIN =C: s2p2
   LEXCH  = PE
   EATOM  =   147.1560 eV,   10.8157 Ry

   TITEL  = PAW_PBE C 08Apr2002
   LULTRA =        F    use ultrasoft PP ?
   IUNSCR =        1    unscreen: 0-lin 1-nonlin 2-no
   RPACOR =    1.200    partial core radius
   POMASS =   12.011; ZVAL   =    4.000    mass and valenz
   RCORE  =    1.500    outmost cutoff radius
   RWIGS  =    1.630; RWIGS  =    0.863    wigner-seitz radius (au A)
   ENMAX  =  400.000; ENMIN  =  300.000 eV
   ICORE  =        2    local potential
   LCOR   =        T    correct aug charges
   LPAW   =        T    paw PP
   EAUG   =  644.873
   DEXC   =    0.000
   RMAX   =    1.529    core radius for proj-oper
   RAUG   =    1.300    factor for augmentation sphere
   RDEP   =    1.501    radius for radial grids
   RDEPT  =    1.300    core radius for aug-charge

   Atomic configuration
    4 entries
     n  l   j            E        occ.
     1  0  0.50      -273.3789   2.0000
     2  0  0.50       -13.7508   2.0000
     2  1  0.50        -5.2854   2.0000
     3  2  1.50        -5.4423   0.0000
   Description
     l       E           TYP  RCUT    TYP  RCUT
     0    -13.7508458     23  1.200
     0     -8.2022199     23  1.200
     1     -5.2854383     23  1.500
     1     34.0145650     23  1.500
     2     -5.4423304      7  1.500
  local pseudopotential read in
  partial core-charges read in
  partial kinetic energy density read in
  atomic valenz-charges read in
  non local Contribution for L=           0  read in
    real space projection operators read in
  non local Contribution for L=           0  read in
    real space projection operators read in
  non local Contribution for L=           1  read in
    real space projection operators read in
  non local Contribution for L=           1  read in
    real space projection operators read in
    PAW grid and wavefunctions read in

   number of l-projection  operators is LMAX  =           4
   number of lm-projection operators is LMMAX =           8

 POTCAR:    PAW_PBE O 08Apr2002
   SHA256 =  818f92134a0a090dccd8ba1447fa70422a3b330e708bb4f08108d8ae51209ddf O/POTCAR
   COPYR  = (c) Copyright 08Apr2002 Georg Kresse
   COPYR  = This file is part of the software VASP. Any use, copying, and all other rights are regul
   COPYR  = If you do not have a valid VASP license, you may not use, copy or distribute this file.
   VRHFIN =O: s2p4
   LEXCH  = PE
   EATOM  =   432.3788 eV,   31.7789 Ry

   TITEL  = PAW_PBE O 08Apr2002
   LULTRA =        F    use ultrasoft PP ?
   IUNSCR =        1    unscreen: 0-lin 1-nonlin 2-no
   RPACOR =    1.200    partial core radius
   POMASS =   16.000; ZVAL   =    6.000    mass and valenz
   RCORE  =    1.520    outmost cutoff radius
   RWIGS  =    1.550; RWIGS  =    0.820    wigner-seitz radius (au A)
   ENMAX  =  400.000; ENMIN  =  300.000 eV
   ICORE  =        2    local potential
   LCOR   =        T    correct aug charges
   LPAW   =        T    paw PP
   EAUG   =  605.392
   DEXC   =    0.000
   RMAX   =    1.553    core radius for proj-oper
   RAUG   =    1.300    factor for augmentation sphere
   RDEP   =    1.550    radius for radial grids
   RDEPT  =    1.329    core radius for aug-charge

   Atomic configuration
    4 entries
     n  l   j            E        occ.
     1  0  0.50      -514.6923   2.0000
     2  0  0.50       -23.9615   2.0000
     2  1  0.50        -9.0305   4.0000
     3  2  1.50        -9.5241   0.0000
   Description
     l       E           TYP  RCUT    TYP  RCUT
     0    -23.9615318     23  1.200
     0     -9.5240782     23  1.200
     1     -9.0304911     23  1.520
     1      8.1634956     23  1.520
     2     -9.5240782      7  1.500
  local pseudopotential read in
  partial core-charges read in
  partial kinetic energy density read in
  kinetic energy density of atom read in
  atomic valenz-charges read in
  non local Contribution for L=           0  read in
    real space projection operators read in
  non local Contribution for L=           0  read in
    real space projection operators read in
  non local Contribution for L=           1  read in
    real space projection operators read in
  non local Contribution for L=           1  read in
    real space projection operators read in
    PAW grid and wavefunctions read in

   number of l-projection  operators is LMAX  =           4
   number of lm-projection operators is LMMAX =           8

 POTCAR:    PAW_PBE Mg_pv 13Apr2007
   SHA256 =  f474ac0dd33840b9ae76c01d57fea79fdf77cdfbb07d5ade72c65f83c709b62b Mg_pv/POTCAR
   COPYR  = (c) Copyright 13Apr2007 Georg Kresse
   COPYR  = This file is part of the software VASP. Any use, copying, and all other rights are regul
   COPYR  = If you do not have a valid VASP license, you may not use, copy or distribute this file.
   VRHFIN =Mg: p6s2
   LEXCH  = PE
   EATOM  =  1056.7344 eV,   77.6678 Ry

   TITEL  = PAW_PBE Mg_pv 13Apr2007
   LULTRA =        F    use ultrasoft PP ?
   IUNSCR =        1    unscreen: 0-lin 1-nonlin 2-no
   RPACOR =    1.500    partial core radius
   POMASS =   24.305; ZVAL   =    8.000    mass and valenz
   RCORE  =    2.000    outmost cutoff radius
   RWIGS  =    2.000; RWIGS  =    1.058    wigner-seitz radius (au A)
   ENMAX  =  403.929; ENMIN  =  302.947 eV
   RCLOC  =    1.506    cutoff for local pot
   LCOR   =        T    correct aug charges
   LPAW   =        T    paw PP
   EAUG   =  758.780
   DEXC   =    0.000
   RMAX   =    2.045    core radius for proj-oper
   RAUG   =    1.300    factor for augmentation sphere
   RDEP   =    2.025    radius for radial grids
   RDEPT  =    1.557    core radius for aug-charge

   Atomic configuration
    5 entries
     n  l   j            E        occ.
     1  0  0.50     -1259.6230   2.0000
     2  0  0.50       -79.8442   2.0000
     2  1  1.50       -46.6121   6.0000
     3  0  0.50        -4.7055   2.0000
     3  2  1.50        -1.3606   0.0000
   Description
     l       E           TYP  RCUT    TYP  RCUT
     1    -46.6121073     23  1.600
     1      2.7211652     23  1.600
     0     -4.7054661     23  2.000
     0     61.2262170     23  2.000
     2     -1.3605826     23  2.000
  local pseudopotential read in
  partial core-charges read in
  partial kinetic energy density read in
  atomic valenz-charges read in
  non local Contribution for L=           1  read in
    real space projection operators read in
  non local Contribution for L=           1  read in
    real space projection operators read in
  non local Contribution for L=           0  read in
    real space projection operators read in
  non local Contribution for L=           0  read in
    real space projection operators read in
  non local Contribution for L=           2  read in
    real space projection operators read in
    PAW grid and wavefunctions read in

   number of l-projection  operators is LMAX  =           5
   number of lm-projection operators is LMMAX =          13

 POTCAR:    PAW_PBE O 08Apr2002
   SHA256 =  818f92134a0a090dccd8ba1447fa70422a3b330e708bb4f08108d8ae51209ddf O/POTCAR
   COPYR  = (c) Copyright 08Apr2002 Georg Kresse
   COPYR  = This file is part of the software VASP. Any use, copying, and all other rights are regul
   COPYR  = If you do not have a valid VASP license, you may not use, copy or distribute this file.
   VRHFIN =O: s2p4
   LEXCH  = PE
   EATOM  =   432.3788 eV,   31.7789 Ry

   TITEL  = PAW_PBE O 08Apr2002
   LULTRA =        F    use ultrasoft PP ?
   IUNSCR =        1    unscreen: 0-lin 1-nonlin 2-no
   RPACOR =    1.200    partial core radius
   POMASS =   16.000; ZVAL   =    6.000    mass and valenz
   RCORE  =    1.520    outmost cutoff radius
   RWIGS  =    1.550; RWIGS  =    0.820    wigner-seitz radius (au A)
   ENMAX  =  400.000; ENMIN  =  300.000 eV
   ICORE  =        2    local potential
   LCOR   =        T    correct aug charges
   LPAW   =        T    paw PP
   EAUG   =  605.392
   DEXC   =    0.000
   RMAX   =    1.553    core radius for proj-oper
   RAUG   =    1.300    factor for augmentation sphere
   RDEP   =    1.550    radius for radial grids
   RDEPT  =    1.329    core radius for aug-charge

   Atomic configuration
    4 entries
     n  l   j            E        occ.
     1  0  0.50      -514.6923   2.0000
     2  0  0.50       -23.9615   2.0000
     2  1  0.50        -9.0305   4.0000
     3  2  1.50        -9.5241   0.0000
   Description
     l       E           TYP  RCUT    TYP  RCUT
     0    -23.9615318     23  1.200
     0     -9.5240782     23  1.200
     1     -9.0304911     23  1.520
     1      8.1634956     23  1.520
     2     -9.5240782      7  1.500
  local pseudopotential read in
  partial core-charges read in
  partial kinetic energy density read in
  kinetic energy density of atom read in
  atomic valenz-charges read in
  non local Contribution for L=           0  read in
    real space projection operators read in
  non local Contribution for L=           0  read in
    real space projection operators read in
  non local Contribution for L=           1  read in
    real space projection operators read in
  non local Contribution for L=           1  read in
    real space projection operators read in
    PAW grid and wavefunctions read in

   number of l-projection  operators is LMAX  =           4
   number of lm-projection operators is LMMAX =           8

 -----------------------------------------------------------------------------
|                                                                             |
|               ----> ADVICE to this user running VASP <----                  |
|                                                                             |
|     You have a (more or less) 'large supercell' and for larger cells it     |
|     might be more efficient to use real-space projection operators.         |
|     Therefore, try LREAL= Auto in the INCAR file.                           |
|     Mind: For very accurate calculation, you might also keep the            |
|     reciprocal projection scheme (i.e. LREAL=.FALSE.).                      |
|                                                                             |
 -----------------------------------------------------------------------------

  PAW_PBE C 08Apr2002                   :
 energy of atom  1       EATOM= -147.1560
 kinetic energy error for atom=    0.0057 (will be added to EATOM!!)
  PAW_PBE O 08Apr2002                   :
 energy of atom  2       EATOM= -432.3788
 kinetic energy error for atom=    0.0168 (will be added to EATOM!!)
  PAW_PBE Mg_pv 13Apr2007               :
 energy of atom  3       EATOM=-1056.7344
 kinetic energy error for atom=    0.0221 (will be added to EATOM!!)
  PAW_PBE O 08Apr2002                   :
 energy of atom  4       EATOM= -432.3788
 kinetic energy error for atom=    0.0168 (will be added to EATOM!!)


 POSCAR:  C  O Mg  O
  positions in direct lattice
  velocities in cartesian coordinates
 -----------------------------------------------------------------------------
|                                                                             |
|           W    W    AA    RRRRR   N    N  II  N    N   GGGG   !!!           |
|           W    W   A  A   R    R  NN   N  II  NN   N  G    G  !!!           |
|           W    W  A    A  R    R  N N  N  II  N N  N  G       !!!           |
|           W WW W  AAAAAA  RRRRR   N  N N  II  N  N N  G  GGG   !            |
|           WW  WW  A    A  R   R   N   NN  II  N   NN  G    G                |
|           W    W  A    A  R    R  N    N  II  N    N   GGGG   !!!           |
|                                                                             |
|     Specifying the vdW parameters                                           |
|     VDW_S8 = 1.201                                                          |
|     VDW_A1 = 0.401                                                          |
|     VDW_A2 = 5.029                                                          |
|     in the INCAR file will overwrite the defaults for pbe0. Please make     |
|     sure that is what you intended.                                         |
|                                                                             |
 -----------------------------------------------------------------------------

 exchange correlation table for  LEXCH =        8
   RHO(1)=    0.500       N(1)  =     2000
   RHO(2)=  100.500       N(2)  =     4000



--------------------------------------------------------------------------------------------------------


 ion  position               nearest neighbor table
   1  0.500  0.500  0.766-   2 1.13
   2  0.500  0.500  0.819-   1 1.13
   3  0.250  0.000  0.353-  37 2.09  38 2.09  45 2.09  54 2.09  35 2.09
   4  0.500  0.250  0.353-  37 2.09  38 2.09  46 2.09  53 2.09  36 2.09
   5  0.250  0.250  0.451-  35 2.09  36 2.09  43 2.09  52 2.09  37 2.09  41 2.09
   6  0.500  0.000  0.451-  35 2.09  36 2.09  44 2.09  51 2.09  38 2.09  42 2.09
   7  0.250  0.000  0.550-  42 2.09  41 2.09  49 2.09  58 2.09  35 2.10  39 2.12
   8  0.500  0.250  0.550-  50 2.08  41 2.09  57 2.09  42 2.09  36 2.10  40 2.12
   9  0.250  0.250  0.647-  41 2.08  39 2.09  56 2.09  47 2.09  40 2.09
  10  0.500  0.000  0.647-  40 2.08  48 2.08  42 2.08  39 2.09  55 2.09
  11  0.250  0.500  0.353-  37 2.09  45 2.09  46 2.09  62 2.09  43 2.09
  12  0.500  0.750  0.353-  38 2.09  45 2.09  46 2.09  61 2.09  44 2.09
  13  0.250  0.750  0.451-  35 2.09  43 2.09  44 2.09  60 2.09  45 2.09  49 2.09
  14  0.500  0.500  0.451-  36 2.09  43 2.09  44 2.09  59 2.09  46 2.09  50 2.10
  15  0.250  0.500  0.550-  50 2.08  49 2.09  41 2.09  66 2.09  43 2.10  47 2.12
  16  0.500  0.750  0.550-  50 2.08  49 2.09  65 2.09  42 2.09  44 2.10  48 2.12
  17  0.250  0.750  0.647-  49 2.08  39 2.09  64 2.09  47 2.09  48 2.09
  18  0.500  0.500  0.649-  40 2.10  47 2.10  48 2.10  63 2.10  50 2.12
  19  0.750  0.000  0.353-  38 2.09  53 2.09  54 2.09  61 2.09  51 2.09
  20  0.000  0.250  0.353-  37 2.09  53 2.09  54 2.09  62 2.09  52 2.09
  21  0.750  0.250  0.451-  36 2.09  51 2.09  52 2.09  59 2.09  53 2.09  57 2.09
  22  0.000  0.000  0.451-  35 2.09  51 2.09  52 2.09  60 2.09  54 2.09  58 2.09
  23  0.750  0.000  0.550-  42 2.09  57 2.09  65 2.09  58 2.09  51 2.10  55 2.12
  24  0.000  0.250  0.550-  66 2.09  57 2.09  41 2.09  58 2.09  52 2.10  56 2.12
  25  0.750  0.250  0.647-  57 2.08  56 2.09  55 2.09  40 2.09  63 2.09
  26  0.000  0.000  0.647-  58 2.08  55 2.09  56 2.09  39 2.09  64 2.09
  27  0.750  0.500  0.353-  46 2.09  53 2.09  61 2.09  62 2.09  59 2.09
  28  0.000  0.750  0.353-  45 2.09  54 2.09  61 2.09  62 2.09  60 2.09
  29  0.750  0.750  0.451-  44 2.09  51 2.09  59 2.09  60 2.09  61 2.09  65 2.09
  30  0.000  0.500  0.451-  43 2.09  52 2.09  59 2.09  60 2.09  62 2.09  66 2.09
  31  0.750  0.500  0.550-  50 2.08  57 2.09  65 2.09  66 2.09  59 2.10  63 2.12
  32  0.000  0.750  0.550-  66 2.09  65 2.09  49 2.09  58 2.09  60 2.10  64 2.12
  33  0.750  0.750  0.647-  65 2.08  64 2.09  55 2.09  48 2.09  63 2.09
  34  0.000  0.500  0.647-  47 2.08  63 2.08  66 2.08  64 2.09  56 2.09
  35  0.250  0.000  0.451-   5 2.09   6 2.09  13 2.09  22 2.09   3 2.09   7 2.10
  36  0.500  0.250  0.451-   5 2.09   6 2.09  14 2.09  21 2.09   4 2.09   8 2.10
  37  0.250  0.250  0.353-   3 2.09   4 2.09  11 2.09  20 2.09   5 2.09
  38  0.500  0.000  0.353-   3 2.09   4 2.09  12 2.09  19 2.09   6 2.09
  39  0.250  0.000  0.650-  26 2.09  17 2.09   9 2.09  10 2.09   7 2.12
  40  0.500  0.249  0.650-  10 2.08   9 2.09  25 2.09  18 2.10   8 2.12
  41  0.250  0.250  0.549-   9 2.08   8 2.09  15 2.09   7 2.09  24 2.09   5 2.09
  42  0.500  0.000  0.549-  10 2.08   7 2.09  23 2.09  16 2.09   8 2.09   6 2.09
  43  0.250  0.500  0.451-   5 2.09  13 2.09  14 2.09  30 2.09  11 2.09  15 2.10
  44  0.500  0.750  0.451-   6 2.09  13 2.09  14 2.09  29 2.09  12 2.09  16 2.10
  45  0.250  0.750  0.353-   3 2.09  11 2.09  12 2.09  28 2.09  13 2.09
  46  0.500  0.500  0.353-   4 2.09  11 2.09  12 2.09  27 2.09  14 2.09
  47  0.249  0.500  0.650-  34 2.08  17 2.09   9 2.09  18 2.10  15 2.12
  48  0.500  0.751  0.650-  10 2.08  17 2.09  33 2.09  18 2.10  16 2.12
  49  0.250  0.750  0.549-  17 2.08  16 2.09  15 2.09   7 2.09  32 2.09  13 2.09
  50  0.500  0.500  0.550-   8 2.08  15 2.08  16 2.08  31 2.08  14 2.10  18 2.12
  51  0.750  0.000  0.451-   6 2.09  21 2.09  22 2.09  29 2.09  19 2.09  23 2.10
  52  0.000  0.250  0.451-   5 2.09  21 2.09  22 2.09  30 2.09  20 2.09  24 2.10
  53  0.750  0.250  0.353-   4 2.09  19 2.09  20 2.09  27 2.09  21 2.09
  54  0.000  0.000  0.353-   3 2.09  19 2.09  20 2.09  28 2.09  22 2.09
  55  0.750  0.000  0.650-  26 2.09  25 2.09  33 2.09  10 2.09  23 2.12
  56  0.000  0.250  0.650-  26 2.09  25 2.09   9 2.09  34 2.09  24 2.12
  57  0.750  0.250  0.549-  25 2.08  31 2.09   8 2.09  23 2.09  24 2.09  21 2.09
  58  0.000  0.000  0.549-  26 2.08  23 2.09  24 2.09   7 2.09  32 2.09  22 2.09
  59  0.750  0.500  0.451-  14 2.09  21 2.09  29 2.09  30 2.09  27 2.09  31 2.10
  60  0.000  0.750  0.451-  13 2.09  22 2.09  29 2.09  30 2.09  28 2.09  32 2.10
  61  0.750  0.750  0.353-  12 2.09  19 2.09  27 2.09  28 2.09  29 2.09
  62  0.000  0.500  0.353-  11 2.09  20 2.09  27 2.09  28 2.09  30 2.09
  63  0.751  0.500  0.650-  34 2.08  33 2.09  25 2.09  18 2.10  31 2.12
  64  0.000  0.750  0.650-  26 2.09  17 2.09  33 2.09  34 2.09  32 2.12
  65  0.750  0.750  0.549-  33 2.08  31 2.09  16 2.09  32 2.09  23 2.09  29 2.09
  66  0.000  0.500  0.549-  34 2.08  32 2.09  24 2.09  31 2.09  15 2.09  30 2.09

  LATTYP: Found a simple tetragonal cell.
 ALAT       =     8.3491118266
 C/A-ratio  =     2.5465982863

  Lattice vectors:

 A1 = (   8.3491118266,   0.0000000000,   0.0000000000)
 A2 = (   0.0000000000,   8.3491118266,   0.0000000000)
 A3 = (   0.0000000000,   0.0000000000,  21.2618338699)


Analysis of symmetry for initial positions (statically):
=====================================================================
 Subroutine PRICEL returns:
 Original cell was already a primitive cell.


 Routine SETGRP: Setting up the symmetry group for a
 simple tetragonal supercell.


 Subroutine GETGRP returns: Found  8 space group operations
 (whereof  8 operations were pure point group operations)
 out of a pool of 16 trial point group operations.


The static configuration has the point symmetry C_4v.


Analysis of symmetry for dynamics (positions and initial velocities):
=====================================================================
 Subroutine PRICEL returns:
 Original cell was already a primitive cell.


 Routine SETGRP: Setting up the symmetry group for a
 simple tetragonal supercell.


 Subroutine GETGRP returns: Found  8 space group operations
 (whereof  8 operations were pure point group operations)
 out of a pool of 16 trial point group operations.


The dynamic configuration has the point symmetry C_4v.


Analysis of constrained symmetry for selective dynamics:
=====================================================================
 Subroutine PRICEL returns:
 Original cell was already a primitive cell.


 Routine SETGRP: Setting up the symmetry group for a
 simple tetragonal supercell.


 Subroutine GETGRP returns: Found  8 space group operations
 (whereof  8 operations were pure point group operations)
 out of a pool of 16 trial point group operations.


The constrained configuration has the point symmetry C_4v.


 Subroutine INISYM returns: Found  8 space group operations
 (whereof  8 operations are pure point group operations),
 and found     1 'primitive' translations


----------------------------------------------------------------------------------------

                                     Primitive cell

  volume of cell :    1482.1129

  direct lattice vectors                    reciprocal lattice vectors
     8.349111827  0.000000000  0.000000000     0.119773219  0.000000000  0.000000000
     0.000000000  8.349111827  0.000000000     0.000000000  0.119773219  0.000000000
     0.000000000  0.000000000 21.261833870     0.000000000  0.000000000  0.047032632

  length of vectors
     8.349111827  8.349111827 21.261833870     0.119773219  0.119773219  0.047032632

  position of ions in fractional coordinates (direct lattice)
     0.500000000  0.500000000  0.765950645
     0.500000000  0.500000000  0.819088148
     0.250000000  0.000000000  0.352744737
     0.500000000  0.250000000  0.352744737
     0.250000000  0.250000000  0.450914912
     0.500000000  0.000000000  0.450914912
     0.250126707  0.000000000  0.549606520
     0.500000000  0.250385208  0.549848982
     0.249782306  0.249782306  0.647054444
     0.500000000  0.000000000  0.647128461
     0.250000000  0.500000000  0.352744737
     0.500000000  0.750000000  0.352744737
     0.250000000  0.750000000  0.450914912
     0.500000000  0.500000000  0.450914912
     0.250385208  0.500000000  0.549848982
     0.500000000  0.749614792  0.549848982
     0.249782306  0.750217694  0.647054444
     0.500000000  0.500000000  0.649476521
     0.750000000  0.000000000  0.352744737
     0.000000000  0.250000000  0.352744737
     0.750000000  0.250000000  0.450914912
     0.000000000  0.000000000  0.450914912
     0.749873293  0.000000000  0.549606520
     0.000000000  0.250126707  0.549606520
     0.750217694  0.249782306  0.647054444
     0.000000000  0.000000000  0.647144567
     0.750000000  0.500000000  0.352744737
     0.000000000  0.750000000  0.352744737
     0.750000000  0.750000000  0.450914912
     0.000000000  0.500000000  0.450914912
     0.749614792  0.500000000  0.549848982
     0.000000000  0.749873293  0.549606520
     0.750217694  0.750217694  0.647054444
     0.000000000  0.500000000  0.647128461
     0.250000000  0.000000000  0.450914912
     0.500000000  0.250000000  0.450914912
     0.250000000  0.250000000  0.352744737
     0.500000000  0.000000000  0.352744737
     0.249777413  0.000000000  0.649514620
     0.500000000  0.248844121  0.649619708
     0.250005084  0.250005084  0.549398552
     0.500000000  0.000000000  0.549333945
     0.250000000  0.500000000  0.450914912
     0.500000000  0.750000000  0.450914912
     0.250000000  0.750000000  0.352744737
     0.500000000  0.500000000  0.352744737
     0.248844121  0.500000000  0.649619708
     0.500000000  0.751155879  0.649619708
     0.250005084  0.749994916  0.549398552
     0.500000000  0.500000000  0.549862587
     0.750000000  0.000000000  0.450914912
     0.000000000  0.250000000  0.450914912
     0.750000000  0.250000000  0.352744737
     0.000000000  0.000000000  0.352744737
     0.750222587  0.000000000  0.649514620
     0.000000000  0.249777413  0.649514620
     0.749994916  0.250005084  0.549398552
     0.000000000  0.000000000  0.549313075
     0.750000000  0.500000000  0.450914912
     0.000000000  0.750000000  0.450914912
     0.750000000  0.750000000  0.352744737
     0.000000000  0.500000000  0.352744737
     0.751155879  0.500000000  0.649619708
     0.000000000  0.750222587  0.649514620
     0.749994916  0.749994916  0.549398552
     0.000000000  0.500000000  0.549333945

  ion indices of the primitive-cell ions
   primitive index   ion index
                 1           1
                 2           2
                 3           3
                 4           4
                 5           5
                 6           6
                 7           7
                 8           8
                 9           9
                10          10
                11          11
                12          12
                13          13
                14          14
                15          15
                16          16
                17          17
                18          18
                19          19
                20          20
                21          21
                22          22
                23          23
                24          24
                25          25
                26          26
                27          27
                28          28
                29          29
                30          30
                31          31
                32          32
                33          33
                34          34
                35          35
                36          36
                37          37
                38          38
                39          39
                40          40
                41          41
                42          42
                43          43
                44          44
                45          45
                46          46
                47          47
                48          48
                49          49
                50          50
                51          51
                52          52
                53          53
                54          54
                55          55
                56          56
                57          57
                58          58
                59          59
                60          60
                61          61
                62          62
                63          63
                64          64
                65          65
                66          66

----------------------------------------------------------------------------------------



 KPOINTS: pymatgen v2020.8.13 with grid density =

Automatic generation of k-mesh.
 Grid dimensions read from file:
 generate k-points for:    2    2    1

 Generating k-lattice:

  Cartesian coordinates                     Fractional coordinates (reciprocal lattice)
     0.059886610  0.000000000  0.000000000     0.500000000  0.000000000  0.000000000
     0.000000000  0.059886610  0.000000000     0.000000000  0.500000000  0.000000000
     0.000000000  0.000000000  0.047032632     0.000000000  0.000000000  1.000000000

  Length of vectors
     0.059886610  0.059886610  0.047032632

  Shift w.r.t. Gamma in fractional coordinates (k-lattice)
     0.000000000  0.000000000  0.000000000


 Subroutine IBZKPT returns following result:
 ===========================================

 Found      3 irreducible k-points:

 Following reciprocal coordinates:
            Coordinates               Weight
  0.000000  0.000000  0.000000      1.000000
  0.500000  0.000000  0.000000      2.000000
  0.500000  0.500000  0.000000      1.000000

 Following cartesian coordinates:
            Coordinates               Weight
  0.000000  0.000000  0.000000      1.000000
  0.059887  0.000000  0.000000      2.000000
  0.059887  0.059887  0.000000      1.000000


 Subroutine IBZKPT_HF returns following result:
 ==============================================

 Found      4 k-points in 1st BZ
 the following      4 k-points will be used (e.g. in the exchange kernel)
 Following reciprocal coordinates:   # in IRBZ
  0.000000  0.000000  0.000000    0.25000000   1 t-inv F
  0.500000  0.000000  0.000000    0.25000000   2 t-inv F
  0.500000  0.500000  0.000000    0.25000000   3 t-inv F
  0.000000  0.500000  0.000000    0.25000000   2 t-inv F


--------------------------------------------------------------------------------------------------------




 Dimension of arrays:
   k-points           NKPTS =      3   k-points in BZ     NKDIM =      4   number of bands    NBANDS=    304
   number of dos      NEDOS =    301   number of ions     NIONS =     66
   non local maximal  LDIM  =      5   non local SUM 2l+1 LMDIM =     13
   total plane-waves  NPLWV = 882000
   max r-space proj   IRMAX =      1   max aug-charges    IRDMAX=  11926
   dimension x,y,z NGX =    70 NGY =   70 NGZ =  180
   dimension x,y,z NGXF=   140 NGYF=  140 NGZF=  360
   support grid    NGXF=   140 NGYF=  140 NGZF=  360
   ions per type =               1   1  32  32
   NGX,Y,Z   is equivalent  to a cutoff of  13.94, 13.94, 14.07 a.u.
   NGXF,Y,Z  is equivalent  to a cutoff of  27.88, 27.88, 28.15 a.u.

 SYSTEM =  MgO-rocksalt
 POSCAR =   C  O Mg  O

 Startparameter for this run:
   NWRITE =      2    write-flag & timer
   PREC   = accura    normal or accurate (medium, high low for compatibility)
   ISTART =      0    job   : 0-new  1-cont  2-samecut
   ICHARG =      2    charge: 1-file 2-atom 10-const
   ISPIN  =      1    spin polarized calculation?
   LNONCOLLINEAR =      F non collinear calculations
   LSORBIT =      F    spin-orbit coupling
   INIWAV =      1    electr: 0-lowe 1-rand  2-diag
   LASPH  =      T    aspherical Exc in radial PAW
 Electronic Relaxation 1
   ENCUT  =  600.0 eV  44.10 Ry    6.64 a.u.  16.68 16.68 42.47*2*pi/ulx,y,z
   ENINI  =  600.0     initial cutoff
   ENAUG  =  758.8 eV  augmentation charge cutoff
   NELM   =    200;   NELMIN=  8; NELMDL= -5     # of ELM steps
   EDIFF  = 0.1E-06   stopping-criterion for ELM
   LREAL  =      F    real-space projection
   NLSPLINE    = F    spline interpolate recip. space projectors
   LCOMPAT=      F    compatible to vasp.4.4
   GGA_COMPAT  = T    GGA compatible to vasp.4.4-vasp.4.6
   LMAXPAW     = -100 max onsite density
   LMAXMIX     =    2 max onsite mixed and CHGCAR
   VOSKOWN=      0    Vosko Wilk Nusair interpolation
   ROPT   =    0.00000   0.00000   0.00000   0.00000
 Ionic relaxation
   EDIFFG = -.1E-01   stopping-criterion for IOM
   NSW    =      0    number of steps for IOM
   NBLOCK =      1;   KBLOCK =      1    inner block; outer block
   IBRION =     -1    ionic relax: 0-MD 1-quasi-New 2-CG
   NFREE  =      0    steps in history (QN), initial steepest desc. (CG)
   ISIF   =      2    stress and relaxation
   IWAVPR =     10    prediction:  0-non 1-charg 2-wave 3-comb
   ISYM   =      2    0-nonsym 1-usesym 2-fastsym
   LCORR  =      T    Harris-Foulkes like correction to forces

   POTIM  = 0.5000    time-step for ionic-motion
   TEIN   =    0.0    initial temperature
   TEBEG  =    0.0;   TEEND  =   0.0 temperature during run
   SMASS  =  -3.00    Nose mass-parameter (am)
   estimated Nose-frequenzy (Omega)   =  0.10E-29 period in steps = 0.13E+47 mass=  -0.159E-26a.u.
   SCALEE = 1.0000    scale energy and forces
   NPACO  =    256;   APACO  = 10.0  distance and # of slots for P.C.
   PSTRESS=    0.0 pullay stress

  Mass of Ions in am
   POMASS =  12.01 16.00 24.30 16.00
  Ionic Valenz
   ZVAL   =   4.00  6.00  8.00  6.00
  Atomic Wigner-Seitz radii
   RWIGS  =  -1.00 -1.00 -1.00 -1.00
  virtual crystal weights
   VCA    =   1.00  1.00  1.00  1.00
   NELECT =     458.0000    total number of electrons
   NUPDOWN=      -1.0000    fix difference up-down

 DOS related values:
   EMIN   =  10.00;   EMAX   =-10.00  energy-range for DOS
   EFERMI =   0.00
   ISMEAR =     0;   SIGMA  =   0.05  broadening in eV -4-tet -1-fermi 0-gaus

 Electronic relaxation 2 (details)
   IALGO  =     58    algorithm
   LDIAG  =      T    sub-space diagonalisation (order eigenvalues)
   LSUBROT=      F    optimize rotation matrix (better conditioning)
   TURBO    =      0    0=normal 1=particle mesh
   IRESTART =      0    0=no restart 2=restart with 2 vectors
   NREBOOT  =      0    no. of reboots
   NMIN     =      0    reboot dimension
   EREF     =   0.00    reference energy to select bands
   IMIX   =      4    mixing-type and parameters
     AMIX     =   0.40;   BMIX     =  1.00
     AMIX_MAG =   1.60;   BMIX_MAG =  1.00
     AMIN     =   0.10
     WC   =   100.;   INIMIX=   1;  MIXPRE=   1;  MAXMIX= -45

 Intra band minimization:
   WEIMIN = 0.0000     energy-eigenvalue tresh-hold
   EBREAK =  0.82E-10  absolut break condition
   DEPER  =   0.30     relativ break condition

   TIME   =   0.40     timestep for ELM

  volume/ion in A,a.u.               =      22.46       151.54
  Fermi-wavevector in a.u.,A,eV,Ry     =   1.106801  2.091551 16.667254  1.225009
  Thomas-Fermi vector in A             =   2.243307

 Write flags
   LWAVE        =      F    write WAVECAR
   LDOWNSAMPLE  =      F    k-point downsampling of WAVECAR
   LCHARG       =      F    write CHGCAR
   LVTOT        =      F    write LOCPOT, total local potential
   LVHAR        =      F    write LOCPOT, Hartree potential only
   LELF         =      F    write electronic localiz. function (ELF)
   LORBIT       =      0    0 simple, 1 ext, 2 COOP (PROOUT), +10 PAW based schemes


 Dipole corrections
   LMONO  =      F    monopole corrections only (constant potential shift)
   LDIPOL =      T    correct potential (dipole corrections)
   IDIPOL =      3    1-x, 2-y, 3-z, 4-all directions
   EPSILON=  1.0000000 bulk dielectric constant

 Exchange correlation treatment:
   GGA     =    PE    GGA type
   LEXCH   =     8    internal setting for exchange type
   LIBXC   =     F    Libxc
   VOSKOWN =     0    Vosko Wilk Nusair interpolation
   EXXOEP  =     0    0=HF, 1=EXX-LHF (local Hartree Fock) 2=EXX OEP
   LHFCALC =     T    Hartree Fock is set to
   LSYMGRAD=     F    symmetrize gradient (conserves proper symmetry)
   PRECFOCK=normal    Normal, Fast or Accurate (Low or Medium for compatibility)
   LRHFCALC=     F    long range Hartree Fock
   LRSCOR  =     F    long range correlation only (use DFT for short range part)
   LTHOMAS =     F    Thomas Fermi screening in HF
   LMODELHF=     F    short range full HF, long range fraction AEXX
   LFOCKACE=     T    use Adeptively-Compressed-Exchange operator
   ENCUT4O =  -1.0   cutoff for four orbital integrals eV
   LMAXFOCK=     4    L truncation for augmentation on plane wave grid
   LMAXFOCKAE=  -1    L truncation for all-electron charge restoration on plane wave grid
   NMAXFOCKAE=   1    number of basis functions for all-electron charge restoration
   LFOCKAEDFT=     F  apply the AE augmentation even for DFT
   NKREDX  =     1    reduce k-point grid by
   NKREDY  =     1    reduce k-point grid by
   NKREDZ  =     1    reduce k-point grid by
   SHIFTRED=     F    shift reduced grid of Gamma
   HFKIDENT=     F    idential grid for each k-point
   ODDONLY =     F    use only odd q-grid points
   EVENONLY=     F    use only even q-grid points
   HFALPHA =   -1.0000 decay constant for conv. correction
   MCALPHA =    0.0000 extent of test-charge in conv. correction in multipole expansion
   AEXX    =    0.2500 exact exchange contribution
   HFSCREEN=    0.0000 screening length (either q_TF or 0.3 A-1)
   HFSCREENC=   0.0000 screening length for correlation (either q_TF or 0.3 A-1)
   HFRCUT  =    0.0000 spherical cutoff for potential kernel
   ALDAX   =    0.7500 LDA exchange part
   AGGAX   =    0.7500 GGA exchange part
   ALDAC   =    1.0000 LDA correlation
   AGGAC   =    1.0000 GGA correlation
   ENCUTFOCK=  -1.0 apply spherical cutoff to Coloumb kernel
   NBANDSGWLOW=     1    first orbital included in HF term
   NBLOCK_FOCK=    64    blocking factor in FOCK_ACC

 Linear response parameters
   LEPSILON=     F    determine dielectric tensor
   LRPA    =     F    only Hartree local field effects (RPA)
   LNABLA  =     F    use nabla operator in PAW spheres
   LVEL    =     F    velocity operator in full k-point grid
   CSHIFT  =0.1000    complex shift for real part using Kramers Kronig
   OMEGAMAX=  -1.0    maximum frequency
   DEG_THRESHOLD= 0.2000000E-02 threshold for treating states as degnerate
   RTIME   =   -0.100 relaxation time in fs
  (WPLASMAI=    0.000 imaginary part of plasma frequency in eV, 0.658/RTIME)
   DFIELD  = 0.0000000 0.0000000 0.0000000 field for delta impulse in time

  Optional k-point grid parameters
   LKPOINTS_OPT  =     F    use optional k-point grid
   KPOINTS_OPT_MODE=     1    mode for optional k-point grid

 Orbital magnetization related:
   ORBITALMAG=     F  switch on orbital magnetization
   LCHIMAG   =     F  perturbation theory with respect to B field
   DQ        =  0.001000  dq finite difference perturbation B field
   LLRAUG    =     F  two centre corrections for induced B field



--------------------------------------------------------------------------------------------------------


 Static calculation
 charge density and potential will be updated during run
 non-spin polarized calculation
 Conjugate gradient for all bands (Freysoldt, et al. PRB 79, 241103 (2009))
 preconditioned conjugated gradient
 perform sub-space diagonalisation
    before iterative eigenvector-optimisation
 modified Broyden-mixing scheme, WC =      100.0
 initial mixing is a Kerker type mixing with AMIX =  0.4000 and BMIX =      1.0000
 Hartree-type preconditioning will be used
 using additional bands           75
 reciprocal scheme for non local part
 use partial core corrections
 no Harris-corrections to forces
 use gradient corrections
 use of overlap-Matrix (Vanderbilt PP)
 Gauss-broadening in eV      SIGMA  =   0.05


--------------------------------------------------------------------------------------------------------


  energy-cutoff  :      600.00
  volume of cell :     1482.11
      direct lattice vectors                 reciprocal lattice vectors
     8.349111827  0.000000000  0.000000000     0.119773219  0.000000000  0.000000000
     0.000000000  8.349111827  0.000000000     0.000000000  0.119773219  0.000000000
     0.000000000  0.000000000 21.261833870     0.000000000  0.000000000  0.047032632

  length of vectors
     8.349111827  8.349111827 21.261833870     0.119773219  0.119773219  0.047032632



 k-points in units of 2pi/SCALE and weight: pymatgen v2020.8.13 with grid density =
   0.00000000  0.00000000  0.00000000       0.250
   0.05988661  0.00000000  0.00000000       0.500
   0.05988661  0.05988661  0.00000000       0.250

 k-points in reciprocal lattice and weights: pymatgen v2020.8.13 with grid density =
   0.00000000  0.00000000  0.00000000       0.250
   0.50000000  0.00000000  0.00000000       0.500
   0.50000000  0.50000000  0.00000000       0.250

 position of ions in fractional coordinates (direct lattice)
   0.50000000  0.50000000  0.76595064
   0.50000000  0.50000000  0.81908815
   0.25000000  0.00000000  0.35274474
   0.50000000  0.25000000  0.35274474
   0.25000000  0.25000000  0.45091491
   0.50000000  0.00000000  0.45091491
   0.25012671  0.00000000  0.54960652
   0.50000000  0.25038521  0.54984898
   0.24978231  0.24978231  0.64705444
   0.50000000  0.00000000  0.64712846
   0.25000000  0.50000000  0.35274474
   0.50000000  0.75000000  0.35274474
   0.25000000  0.75000000  0.45091491
   0.50000000  0.50000000  0.45091491
   0.25038521  0.50000000  0.54984898
   0.50000000  0.74961479  0.54984898
   0.24978231  0.75021769  0.64705444
   0.50000000  0.50000000  0.64947652
   0.75000000  0.00000000  0.35274474
   0.00000000  0.25000000  0.35274474
   0.75000000  0.25000000  0.45091491
   0.00000000  0.00000000  0.45091491
   0.74987329  0.00000000  0.54960652
   0.00000000  0.25012671  0.54960652
   0.75021769  0.24978231  0.64705444
   0.00000000  0.00000000  0.64714457
   0.75000000  0.50000000  0.35274474
   0.00000000  0.75000000  0.35274474
   0.75000000  0.75000000  0.45091491
   0.00000000  0.50000000  0.45091491
   0.74961479  0.50000000  0.54984898
   0.00000000  0.74987329  0.54960652
   0.75021769  0.75021769  0.64705444
   0.00000000  0.50000000  0.64712846
   0.25000000  0.00000000  0.45091491
   0.50000000  0.25000000  0.45091491
   0.25000000  0.25000000  0.35274474
   0.50000000  0.00000000  0.35274474
   0.24977741  0.00000000  0.64951462
   0.50000000  0.24884412  0.64961971
   0.25000508  0.25000508  0.54939855
   0.50000000  0.00000000  0.54933394
   0.25000000  0.50000000  0.45091491
   0.50000000  0.75000000  0.45091491
   0.25000000  0.75000000  0.35274474
   0.50000000  0.50000000  0.35274474
   0.24884412  0.50000000  0.64961971
   0.50000000  0.75115588  0.64961971
   0.25000508  0.74999492  0.54939855
   0.50000000  0.50000000  0.54986259
   0.75000000  0.00000000  0.45091491
   0.00000000  0.25000000  0.45091491
   0.75000000  0.25000000  0.35274474
   0.00000000  0.00000000  0.35274474
   0.75022259  0.00000000  0.64951462
   0.00000000  0.24977741  0.64951462
   0.74999492  0.25000508  0.54939855
   0.00000000  0.00000000  0.54931307
   0.75000000  0.50000000  0.45091491
   0.00000000  0.75000000  0.45091491
   0.75000000  0.75000000  0.35274474
   0.00000000  0.50000000  0.35274474
   0.75115588  0.50000000  0.64961971
   0.00000000  0.75022259  0.64951462
   0.74999492  0.74999492  0.54939855
   0.00000000  0.50000000  0.54933394

 position of ions in cartesian coordinates  (Angst):
   4.17455591  4.17455591 16.28551536
   4.17455591  4.17455591 17.41531613
   2.08727796  0.00000000  7.50000000
   4.17455591  2.08727796  7.50000000
   2.08727796  2.08727796  9.58727796
   4.17455591  0.00000000  9.58727796
   2.08833585  0.00000000 11.68564251
   4.17455591  2.09049410 11.69079771
   2.08546040  2.08546040 13.75756409
   4.17455591  0.00000000 13.75913783
   2.08727796  4.17455591  7.50000000
   4.17455591  6.26183387  7.50000000
   2.08727796  6.26183387  9.58727796
   4.17455591  4.17455591  9.58727796
   2.09049410  4.17455591 11.69079771
   4.17455591  6.25861772 11.69079771
   2.08546040  6.26365142 13.75756409
   4.17455591  4.17455591 13.80906190
   6.26183387  0.00000000  7.50000000
   0.00000000  2.08727796  7.50000000
   6.26183387  2.08727796  9.58727796
   0.00000000  0.00000000  9.58727796
   6.26077598  0.00000000 11.68564251
   0.00000000  2.08833585 11.68564251
   6.26365142  2.08546040 13.75756409
   0.00000000  0.00000000 13.75948028
   6.26183387  4.17455591  7.50000000
   0.00000000  6.26183387  7.50000000
   6.26183387  6.26183387  9.58727796
   0.00000000  4.17455591  9.58727796
   6.25861772  4.17455591 11.69079771
   0.00000000  6.26077598 11.68564251
   6.26365142  6.26365142 13.75756409
   0.00000000  4.17455591 13.75913783
   2.08727796  0.00000000  9.58727796
   4.17455591  2.08727796  9.58727796
   2.08727796  2.08727796  7.50000000
   4.17455591  0.00000000  7.50000000
   2.08541955  0.00000000 13.80987194
   4.17455591  2.07762739 13.81210630
   2.08732041  2.08732041 11.68122074
   4.17455591  0.00000000 11.67984707
   2.08727796  4.17455591  9.58727796
   4.17455591  6.26183387  9.58727796
   2.08727796  6.26183387  7.50000000
   4.17455591  4.17455591  7.50000000
   2.07762739  4.17455591 13.81210630
   4.17455591  6.27148443 13.81210630
   2.08732041  6.26179142 11.68122074
   4.17455591  4.17455591 11.69108697
   6.26183387  0.00000000  9.58727796
   0.00000000  2.08727796  9.58727796
   6.26183387  2.08727796  7.50000000
   0.00000000  0.00000000  7.50000000
   6.26369228  0.00000000 13.80987194
   0.00000000  2.08541955 13.80987194
   6.26179142  2.08732041 11.68122074
   0.00000000  0.00000000 11.67940333
   6.26183387  4.17455591  9.58727796
   0.00000000  6.26183387  9.58727796
   6.26183387  6.26183387  7.50000000
   0.00000000  4.17455591  7.50000000
   6.27148443  4.17455591 13.81210630
   0.00000000  6.26369228 13.80987194
   6.26179142  6.26179142 11.68122074
   0.00000000  4.17455591 11.67984707



--------------------------------------------------------------------------------------------------------


 k-point   1 :   0.0000 0.0000 0.0000  plane waves:   49537
 k-point   2 :   0.5000 0.0000 0.0000  plane waves:   49450
 k-point   3 :   0.5000 0.5000 0.0000  plane waves:   49384

 maximum and minimum number of plane-waves per node :      6224     6154

 maximum number of plane-waves:     49537
 maximum index in each direction:
   IXMAX=   16   IYMAX=   16   IZMAX=   42
   IXMIN=  -17   IYMIN=  -17   IZMIN=  -42


 parallel 3D FFT for wavefunctions:
    minimum data exchange during FFTs selected (reduces bandwidth)
 parallel 3D FFT for charge:
    minimum data exchange during FFTs selected (reduces bandwidth)


 FFT grid for exact exchange (Hartree Fock)
  NGX = 54; NGY = 54; NGZ =140


 Radii for the augmentation spheres in the non-local exchange
 for species   1 augmentation radius   0.874 (default was   0.699)
       energy cutoff for augmentation   2400.0
 for species   2 augmentation radius   0.902 (default was   0.722)
       energy cutoff for augmentation   2400.0
 for species   3 augmentation radius   1.037 (default was   0.829)
       energy cutoff for augmentation   2400.0
 for species   4 augmentation radius   0.902 (default was   0.722)
       energy cutoff for augmentation   2400.0

 real space projection operators:
  total allocation   :      10040.79 KBytes
  max/ min on nodes  :       1388.66        939.16

 Maximum index for augmentation-charges in exchange          180
  SETUP_FOCK is finished

 total amount of memory used by VASP MPI-rank0    71148. kBytes
=======================================================================

   base      :      30000. kBytes
   nonl-proj :      14358. kBytes
   fftplans  :       8009. kBytes
   grid      :       8190. kBytes
   one-center:         73. kBytes
   HF        :        101. kBytes
   nonlr-proj:       3109. kBytes
   wavefun   :       7308. kBytes

     INWAV:  cpu time      0.0000: real time      0.0003
 Broyden mixing: mesh for mixing (old mesh)
   NGX = 33   NGY = 33   NGZ = 85
  (NGX  =140   NGY  =140   NGZ  =360)
  gives a total of  92565 points

 initial charge density was supplied:
 charge density of overlapping atoms calculated
 number of electron     458.0000000 magnetization
 keeping initial charge density in first step


--------------------------------------------------------------------------------------------------------


 Maximum index for augmentation-charges          612 (set IRDMAX)


--------------------------------------------------------------------------------------------------------


    FEWALD:  cpu time      0.0008: real time      0.0008


--------------------------------------- Iteration      1(   1)  ---------------------------------------


    POTLOK:  cpu time      0.0355: real time      0.0403
    SETDIJ:  cpu time      0.0866: real time      0.0869
    TRIAL :  cpu time      1.0276: real time      1.0360
    CORREC:  cpu time      0.0003: real time      0.0003
    --------------------------------------------
      LOOP:  cpu time      1.1535: real time      1.1698

 eigenvalue-minimisations  :  2242
 total energy-change (2. order) : 0.9376530E+03  (-0.3125892E+05)
 number of electron     458.0000000 magnetization
 augmentation part      458.0000000 magnetization

 DIPCOR: dipole corrections for dipol
 direction  3 min pos     1,
 dipolmoment           0.000000      0.000000     -0.000267 electrons x Angstroem
 Tr[quadrupol]     -6181.468702

 energy correction for charged system         0.000000 eV
 dipol+quadrupol energy correction           -0.000000 eV
 added-field ion interaction          0.002183 eV  (added to PSCEN)


 Free energy of the ion-electron system (eV)
  ---------------------------------------------------
  alpha Z        PSCENC =       931.06614227
  Ewald energy   TEWEN  =    141776.57672692
  -Hartree energ DENC   =   -177879.84644720
  -exchange      EXHF   =         0.00000000
  -V(xc)+E(xc)   XCENC  =      1793.45226102
  PAW double counting   =     32310.01086261   -39107.06083553
  entropy T*S    EENTRO =        -0.01540750
  eigenvalues    EBANDS =     -6994.05119734
  atomic energy  EATOM  =     48107.52088990
  ---------------------------------------------------
  free energy    TOTEN  =       937.65299515 eV

  energy without entropy =      937.66840265  energy(sigma->0) =      937.66069890
  exchange ACFDT corr.  =         0.00000000  see jH, gK, PRB 81, 115126


--------------------------------------------------------------------------------------------------------




--------------------------------------- Iteration      1(   2)  ---------------------------------------


    TRIAL :  cpu time      0.9950: real time      0.9991
    CORREC:  cpu time      0.0001: real time      0.0001
    --------------------------------------------
      LOOP:  cpu time      0.9973: real time      1.0027

 eigenvalue-minimisations  :  2204
 total energy-change (2. order) :-0.4633178E+04  (-0.4518563E+04)
 number of electron     458.0000000 magnetization
 augmentation part      458.0000000 magnetization

 DIPCOR: dipole corrections for dipol
 direction  3 min pos     1,
 dipolmoment           0.000000      0.000000     -0.000267 electrons x Angstroem
 Tr[quadrupol]     -6181.468702

 energy correction for charged system         0.000000 eV
 dipol+quadrupol energy correction           -0.000000 eV
 added-field ion interaction          0.002183 eV  (added to PSCEN)


 Free energy of the ion-electron system (eV)
  ---------------------------------------------------
  alpha Z        PSCENC =       931.06614227
  Ewald energy   TEWEN  =    141776.57672692
  -Hartree energ DENC   =   -177879.84644720
  -exchange      EXHF   =         0.00000000
  -V(xc)+E(xc)   XCENC  =      1793.45226102
  PAW double counting   =     32310.01086261   -39107.06083553
  entropy T*S    EENTRO =        -0.00000000
  eigenvalues    EBANDS =    -11627.24450717
  atomic energy  EATOM  =     48107.52088990
  ---------------------------------------------------
  free energy    TOTEN  =     -3695.52490718 eV

  energy without entropy =    -3695.52490718  energy(sigma->0) =    -3695.52490718
  exchange ACFDT corr.  =         0.00000000  see jH, gK, PRB 81, 115126


--------------------------------------------------------------------------------------------------------




--------------------------------------- Iteration      1(   3)  ---------------------------------------


    TRIAL :  cpu time      0.9474: real time      0.9513
    CORREC:  cpu time      0.0001: real time      0.0001
    --------------------------------------------
      LOOP:  cpu time      0.9488: real time      0.9551

 eigenvalue-minimisations  :  2090
 total energy-change (2. order) :-0.3638879E+03  (-0.3611003E+03)
 number of electron     458.0000000 magnetization
 augmentation part      458.0000000 magnetization

 DIPCOR: dipole corrections for dipol
 direction  3 min pos     1,
 dipolmoment           0.000000      0.000000     -0.000267 electrons x Angstroem
 Tr[quadrupol]     -6181.468702

 energy correction for charged system         0.000000 eV
 dipol+quadrupol energy correction           -0.000000 eV
 added-field ion interaction          0.002183 eV  (added to PSCEN)


 Free energy of the ion-electron system (eV)
  ---------------------------------------------------
  alpha Z        PSCENC =       931.06614227
  Ewald energy   TEWEN  =    141776.57672692
  -Hartree energ DENC   =   -177879.84644720
  -exchange      EXHF   =         0.00000000
  -V(xc)+E(xc)   XCENC  =      1793.45226102
  PAW double counting   =     32310.01086261   -39107.06083553
  entropy T*S    EENTRO =        -0.00000000
  eigenvalues    EBANDS =    -11991.13240030
  atomic energy  EATOM  =     48107.52088990
  ---------------------------------------------------
  free energy    TOTEN  =     -4059.41280031 eV

  energy without entropy =    -4059.41280031  energy(sigma->0) =    -4059.41280031
  exchange ACFDT corr.  =         0.00000000  see jH, gK, PRB 81, 115126


--------------------------------------------------------------------------------------------------------




--------------------------------------- Iteration      1(   4)  ---------------------------------------


    TRIAL :  cpu time      1.0115: real time      1.0155
    CORREC:  cpu time      0.0002: real time      0.0002
    --------------------------------------------
      LOOP:  cpu time      1.0131: real time      1.0212

 eigenvalue-minimisations  :  2242
 total energy-change (2. order) :-0.8714878E+01  (-0.8680672E+01)
 number of electron     458.0000000 magnetization
 augmentation part      458.0000000 magnetization

 DIPCOR: dipole corrections for dipol
 direction  3 min pos     1,
 dipolmoment           0.000000      0.000000     -0.000267 electrons x Angstroem
 Tr[quadrupol]     -6181.468702

 energy correction for charged system         0.000000 eV
 dipol+quadrupol energy correction           -0.000000 eV
 added-field ion interaction          0.002183 eV  (added to PSCEN)


 Free energy of the ion-electron system (eV)
  ---------------------------------------------------
  alpha Z        PSCENC =       931.06614227
  Ewald energy   TEWEN  =    141776.57672692
  -Hartree energ DENC   =   -177879.84644720
  -exchange      EXHF   =         0.00000000
  -V(xc)+E(xc)   XCENC  =      1793.45226102
  PAW double counting   =     32310.01086261   -39107.06083553
  entropy T*S    EENTRO =        -0.00000000
  eigenvalues    EBANDS =    -11999.84727836
  atomic energy  EATOM  =     48107.52088990
  ---------------------------------------------------
  free energy    TOTEN  =     -4068.12767837 eV

  energy without entropy =    -4068.12767837  energy(sigma->0) =    -4068.12767837
  exchange ACFDT corr.  =         0.00000000  see jH, gK, PRB 81, 115126


--------------------------------------------------------------------------------------------------------




--------------------------------------- Iteration      1(   5)  ---------------------------------------


    POTLOK:  cpu time      0.0291: real time      0.0293
    SETDIJ:  cpu time      0.0845: real time      0.0847
    TRIAL :  cpu time     71.6808: real time     71.9885
    CORREC:  cpu time      0.0001: real time      0.0001
    CHARGE:  cpu time      0.1052: real time      0.1055
    --------------------------------------------
      LOOP:  cpu time     71.9018: real time     72.2120

 eigenvalue-minimisations  :  2090
 total energy-change (2. order) : 0.3506654E+04  (-0.2344295E+01)
 number of electron     457.9999885 magnetization
 augmentation part      160.5627280 magnetization

 DIPCOR: dipole corrections for dipol
 direction  3 min pos     1,
 dipolmoment           0.000000      0.000000     -0.000267 electrons x Angstroem
 Tr[quadrupol]     -6181.468702

 energy correction for charged system         0.000000 eV
 dipol+quadrupol energy correction           -0.000000 eV
 added-field ion interaction          0.002183 eV  (added to PSCEN)


 Free energy of the ion-electron system (eV)
  ---------------------------------------------------
  alpha Z        PSCENC =       931.06614227
  Ewald energy   TEWEN  =    141776.57672692
  -Hartree energ DENC   =   -177879.84644720
  -exchange      EXHF   =      1706.37175059
  -V(xc)+E(xc)   XCENC  =      1371.46892045
  PAW double counting   =     32705.07187869   -36310.02076422
  entropy T*S    EENTRO =        -0.00000000
  eigenvalues    EBANDS =    -12969.68311572
  atomic energy  EATOM  =     48107.52088990
  ---------------------------------------------------
  free energy    TOTEN  =      -561.47401831 eV

  energy without entropy =     -561.47401831  energy(sigma->0) =     -561.47401831
  exchange ACFDT corr.  =        -0.00000000  see jH, gK, PRB 81, 115126


--------------------------------------------------------------------------------------------------------




--------------------------------------- Iteration      1(   6)  ---------------------------------------


    POTLOK:  cpu time      0.0299: real time      0.0300
    SETDIJ:  cpu time      0.0856: real time      0.0858
    TRIAL :  cpu time     71.2357: real time     71.5371
    CORREC:  cpu time     70.9703: real time     71.2742
    CHARGE:  cpu time      0.0758: real time      0.0761
    --------------------------------------------
      LOOP:  cpu time    142.3990: real time    143.0080

 eigenvalue-minimisations  :     0
 total energy-change (2. order) : 0.2085247E+03  (-0.1115435E+03)
 number of electron     457.9999856 magnetization
 augmentation part      157.0163599 magnetization

 DIPCOR: dipole corrections for dipol
 direction  3 min pos     1,
 dipolmoment           0.000000      0.000000      0.225512 electrons x Angstroem
 Tr[quadrupol]     -6211.684537

 energy correction for charged system         0.000000 eV
 dipol+quadrupol energy correction           -0.003105 eV
 added-field ion interaction         -1.847209 eV  (added to PSCEN)


 Free energy of the ion-electron system (eV)
  ---------------------------------------------------
  alpha Z        PSCENC =       926.55777541
  Ewald energy   TEWEN  =    141776.57672692
  -Hartree energ DENC   =   -182010.48183879
  -exchange      EXHF   =      1709.50517088
  -V(xc)+E(xc)   XCENC  =      1475.41406571
  PAW double counting   =     38172.09304508   -41746.19876059
  entropy T*S    EENTRO =        -0.00000000
  eigenvalues    EBANDS =     -8763.93642528
  atomic energy  EATOM  =     48107.52088990
  ---------------------------------------------------
  free energy    TOTEN  =      -352.94935076 eV

  energy without entropy =     -352.94935076  energy(sigma->0) =     -352.94935076
  exchange ACFDT corr.  =         0.00000000  see jH, gK, PRB 81, 115126


--------------------------------------------------------------------------------------------------------




--------------------------------------- Iteration      1(   7)  ---------------------------------------


    POTLOK:  cpu time      0.0310: real time      0.0311
    SETDIJ:  cpu time      0.0902: real time      0.0904
    TRIAL :  cpu time     71.1228: real time     71.4245
    CORREC:  cpu time     70.8231: real time     71.1241
    CHARGE:  cpu time      0.0745: real time      0.0748
    --------------------------------------------
      LOOP:  cpu time    142.1439: real time    142.7498

 eigenvalue-minimisations  :     0
 total energy-change (2. order) :-0.1124019E+03  (-0.8481004E+01)
 number of electron     457.9999853 magnetization
 augmentation part      155.3473728 magnetization

 DIPCOR: dipole corrections for dipol
 direction  3 min pos     1,
 dipolmoment           0.000000      0.000000      0.222434 electrons x Angstroem
 Tr[quadrupol]     -6223.287956

 energy correction for charged system         0.000000 eV
 dipol+quadrupol energy correction           -0.003020 eV
 added-field ion interaction         -1.821997 eV  (added to PSCEN)


 Free energy of the ion-electron system (eV)
  ---------------------------------------------------
  alpha Z        PSCENC =       928.71144897
  Ewald energy   TEWEN  =    141776.57672692
  -Hartree energ DENC   =   -179912.03001510
  -exchange      EXHF   =      1644.76636429
  -V(xc)+E(xc)   XCENC  =      1418.36398594
  PAW double counting   =     36935.33796523   -40562.63116875
  entropy T*S    EENTRO =        -0.00000000
  eigenvalues    EBANDS =    -10801.96741505
  atomic energy  EATOM  =     48107.52088990
  ---------------------------------------------------
  free energy    TOTEN  =      -465.35121765 eV

  energy without entropy =     -465.35121765  energy(sigma->0) =     -465.35121765
  exchange ACFDT corr.  =         0.00000000  see jH, gK, PRB 81, 115126


--------------------------------------------------------------------------------------------------------




--------------------------------------- Iteration      1(   8)  ---------------------------------------


    POTLOK:  cpu time      0.0312: real time      0.0313
    SETDIJ:  cpu time      0.0851: real time      0.0853
    TRIAL :  cpu time     71.0063: real time     71.3100
    CORREC:  cpu time     71.0192: real time     71.3198
    CHARGE:  cpu time      0.0757: real time      0.0760
    --------------------------------------------
      LOOP:  cpu time    142.2195: real time    142.8272

 eigenvalue-minimisations  :     0
 total energy-change (2. order) :-0.8523530E+01  (-0.5016415E+01)
 number of electron     457.9999849 magnetization
 augmentation part      155.3783421 magnetization

 DIPCOR: dipole corrections for dipol
 direction  3 min pos     1,
 dipolmoment           0.000000      0.000000      0.149623 electrons x Angstroem
 Tr[quadrupol]     -6224.623989

 energy correction for charged system         0.000000 eV
 dipol+quadrupol energy correction           -0.001367 eV
 added-field ion interaction         -1.225589 eV  (added to PSCEN)


 Free energy of the ion-electron system (eV)
  ---------------------------------------------------
  alpha Z        PSCENC =       929.42258089
  Ewald energy   TEWEN  =    141776.57672692
  -Hartree energ DENC   =   -179958.96496943
  -exchange      EXHF   =      1638.21201176
  -V(xc)+E(xc)   XCENC  =      1411.45492627
  PAW double counting   =     36932.91638549   -40504.58017259
  entropy T*S    EENTRO =        -0.00000000
  eigenvalues    EBANDS =    -10806.43312653
  atomic energy  EATOM  =     48107.52088990
  ---------------------------------------------------
  free energy    TOTEN  =      -473.87474732 eV

  energy without entropy =     -473.87474732  energy(sigma->0) =     -473.87474732
  exchange ACFDT corr.  =         0.00000000  see jH, gK, PRB 81, 115126


--------------------------------------------------------------------------------------------------------




--------------------------------------- Iteration      1(   9)  ---------------------------------------


    POTLOK:  cpu time      0.0316: real time      0.0317
    SETDIJ:  cpu time      0.0923: real time      0.0924
    TRIAL :  cpu time     70.9329: real time     71.2382
    CORREC:  cpu time     70.9332: real time     71.2366
    CHARGE:  cpu time      0.0749: real time      0.0752
    --------------------------------------------
      LOOP:  cpu time    142.0671: real time    142.6784

 eigenvalue-minimisations  :     0
 total energy-change (2. order) :-0.4961815E+01  (-0.3132479E+01)
 number of electron     457.9999848 magnetization
 augmentation part      155.3727776 magnetization

 DIPCOR: dipole corrections for dipol
 direction  3 min pos     1,
 dipolmoment           0.000000      0.000000      0.111890 electrons x Angstroem
 Tr[quadrupol]     -6220.712684

 energy correction for charged system         0.000000 eV
 dipol+quadrupol energy correction           -0.000764 eV
 added-field ion interaction         -0.916515 eV  (added to PSCEN)


 Free energy of the ion-electron system (eV)
  ---------------------------------------------------
  alpha Z        PSCENC =       930.04937816
  Ewald energy   TEWEN  =    141776.57672692
  -Hartree energ DENC   =   -179912.08779180
  -exchange      EXHF   =      1635.80969380
  -V(xc)+E(xc)   XCENC  =      1410.15689157
  PAW double counting   =     36879.76854138   -40478.53644146
  entropy T*S    EENTRO =        -0.00000000
  eigenvalues    EBANDS =    -10828.09445098
  atomic energy  EATOM  =     48107.52088990
  ---------------------------------------------------
  free energy    TOTEN  =      -478.83656250 eV

  energy without entropy =     -478.83656250  energy(sigma->0) =     -478.83656250
  exchange ACFDT corr.  =        -0.00000000  see jH, gK, PRB 81, 115126


--------------------------------------------------------------------------------------------------------




--------------------------------------- Iteration      1(  10)  ---------------------------------------


    POTLOK:  cpu time      0.0322: real time      0.0323
    SETDIJ:  cpu time      0.0872: real time      0.0874
    TRIAL :  cpu time     71.1134: real time     71.4151
    CORREC:  cpu time     71.0096: real time     71.3084
    CHARGE:  cpu time      0.0757: real time      0.0760
    --------------------------------------------
      LOOP:  cpu time    142.3210: real time    142.9237

 eigenvalue-minimisations  :     0
 total energy-change (2. order) :-0.3127121E+01  (-0.1132610E+01)
 number of electron     457.9999849 magnetization
 augmentation part      155.2132304 magnetization

 DIPCOR: dipole corrections for dipol
 direction  3 min pos     1,
 dipolmoment           0.000000      0.000000      0.114285 electrons x Angstroem
 Tr[quadrupol]     -6216.812359

 energy correction for charged system         0.000000 eV
 dipol+quadrupol energy correction           -0.000797 eV
 added-field ion interaction         -0.936134 eV  (added to PSCEN)


 Free energy of the ion-electron system (eV)
  ---------------------------------------------------
  alpha Z        PSCENC =       930.15162964
  Ewald energy   TEWEN  =    141776.57672692
  -Hartree energ DENC   =   -179746.53429715
  -exchange      EXHF   =      1632.33036908
  -V(xc)+E(xc)   XCENC  =      1408.28251885
  PAW double counting   =     36718.07303642   -40329.85531509
  entropy T*S    EENTRO =        -0.00000000
  eigenvalues    EBANDS =    -10978.50924196
  atomic energy  EATOM  =     48107.52088990
  ---------------------------------------------------
  free energy    TOTEN  =      -481.96368339 eV

  energy without entropy =     -481.96368339  energy(sigma->0) =     -481.96368339
  exchange ACFDT corr.  =         0.00000000  see jH, gK, PRB 81, 115126


--------------------------------------------------------------------------------------------------------




--------------------------------------- Iteration      1(  11)  ---------------------------------------


    POTLOK:  cpu time      0.0320: real time      0.0321
    SETDIJ:  cpu time      0.0887: real time      0.0889
    TRIAL :  cpu time     70.9573: real time     71.2563
    CORREC:  cpu time     70.9764: real time     71.2737
    CHARGE:  cpu time      0.0756: real time      0.0758
    --------------------------------------------
      LOOP:  cpu time    142.1329: real time    142.7312

 eigenvalue-minimisations  :     0
 total energy-change (2. order) :-0.1140664E+01  (-0.4239356E+00)
 number of electron     457.9999850 magnetization
 augmentation part      155.2527707 magnetization

 DIPCOR: dipole corrections for dipol
 direction  3 min pos     1,
 dipolmoment           0.000000      0.000000      0.126222 electrons x Angstroem
 Tr[quadrupol]     -6216.993034

 energy correction for charged system         0.000000 eV
 dipol+quadrupol energy correction           -0.000973 eV
 added-field ion interaction         -1.033907 eV  (added to PSCEN)


 Free energy of the ion-electron system (eV)
  ---------------------------------------------------
  alpha Z        PSCENC =       930.12392499
  Ewald energy   TEWEN  =    141776.57672692
  -Hartree energ DENC   =   -179624.01494658
  -exchange      EXHF   =      1630.14485452
  -V(xc)+E(xc)   XCENC  =      1406.90719096
  PAW double counting   =     36606.97574540   -40208.86575414
  entropy T*S    EENTRO =        -0.00000000
  eigenvalues    EBANDS =    -11108.47297907
  atomic energy  EATOM  =     48107.52088990
  ---------------------------------------------------
  free energy    TOTEN  =      -483.10434710 eV

  energy without entropy =     -483.10434710  energy(sigma->0) =     -483.10434710
  exchange ACFDT corr.  =         0.00000000  see jH, gK, PRB 81, 115126


--------------------------------------------------------------------------------------------------------




--------------------------------------- Iteration      1(  12)  ---------------------------------------


    POTLOK:  cpu time      0.0325: real time      0.0326
    SETDIJ:  cpu time      0.0939: real time      0.0941
    TRIAL :  cpu time     71.1322: real time     71.4377
    CORREC:  cpu time     71.0421: real time     71.3485
    CHARGE:  cpu time      0.0752: real time      0.0755
    --------------------------------------------
      LOOP:  cpu time    142.3773: real time    142.9928

 eigenvalue-minimisations  :     0
 total energy-change (2. order) :-0.4238393E+00  (-0.1815768E+00)
 number of electron     457.9999851 magnetization
 augmentation part      155.4298662 magnetization

 DIPCOR: dipole corrections for dipol
 direction  3 min pos     1,
 dipolmoment           0.000000      0.000000      0.136031 electrons x Angstroem
 Tr[quadrupol]     -6217.384824

 energy correction for charged system         0.000000 eV
 dipol+quadrupol energy correction           -0.001130 eV
 added-field ion interaction         -1.114259 eV  (added to PSCEN)


 Free energy of the ion-electron system (eV)
  ---------------------------------------------------
  alpha Z        PSCENC =       930.03339762
  Ewald energy   TEWEN  =    141776.57672692
  -Hartree energ DENC   =   -179599.62709101
  -exchange      EXHF   =      1629.63373160
  -V(xc)+E(xc)   XCENC  =      1406.78065566
  PAW double counting   =     36565.58735487   -40162.90266821
  entropy T*S    EENTRO =        -0.00000000
  eigenvalues    EBANDS =    -11137.13118374
  atomic energy  EATOM  =     48107.52088990
  ---------------------------------------------------
  free energy    TOTEN  =      -483.52818638 eV

  energy without entropy =     -483.52818638  energy(sigma->0) =     -483.52818638
  exchange ACFDT corr.  =         0.00000000  see jH, gK, PRB 81, 115126


--------------------------------------------------------------------------------------------------------




--------------------------------------- Iteration      1(  13)  ---------------------------------------


    POTLOK:  cpu time      0.0326: real time      0.0327
    SETDIJ:  cpu time      0.0965: real time      0.0967
    TRIAL :  cpu time     71.0295: real time     71.3370
    CORREC:  cpu time     70.9207: real time     71.2281
    CHARGE:  cpu time      0.0756: real time      0.0759
    --------------------------------------------
      LOOP:  cpu time    142.1567: real time    142.7747

 eigenvalue-minimisations  :     0
 total energy-change (2. order) :-0.1815824E+00  (-0.8319592E-01)
 number of electron     457.9999851 magnetization
 augmentation part      155.5516262 magnetization

 DIPCOR: dipole corrections for dipol
 direction  3 min pos     1,
 dipolmoment           0.000000      0.000000      0.141161 electrons x Angstroem
 Tr[quadrupol]     -6217.794307

 energy correction for charged system         0.000000 eV
 dipol+quadrupol energy correction           -0.001216 eV
 added-field ion interaction         -1.156273 eV  (added to PSCEN)


 Free energy of the ion-electron system (eV)
  ---------------------------------------------------
  alpha Z        PSCENC =       929.94822160
  Ewald energy   TEWEN  =    141776.57672692
  -Hartree energ DENC   =   -179624.91443015
  -exchange      EXHF   =      1629.96769436
  -V(xc)+E(xc)   XCENC  =      1407.30779053
  PAW double counting   =     36564.00139119   -40164.75761745
  entropy T*S    EENTRO =        -0.00000000
  eigenvalues    EBANDS =    -11109.36043564
  atomic energy  EATOM  =     48107.52088990
  ---------------------------------------------------
  free energy    TOTEN  =      -483.70976874 eV

  energy without entropy =     -483.70976874  energy(sigma->0) =     -483.70976874
  exchange ACFDT corr.  =         0.00000000  see jH, gK, PRB 81, 115126


--------------------------------------------------------------------------------------------------------




--------------------------------------- Iteration      1(  14)  ---------------------------------------


    POTLOK:  cpu time      0.0320: real time      0.0321
    SETDIJ:  cpu time      0.0854: real time      0.0856
    TRIAL :  cpu time     70.9468: real time     71.2554
    CORREC:  cpu time     70.9185: real time     71.2268
    CHARGE:  cpu time      0.0756: real time      0.0759
    --------------------------------------------
      LOOP:  cpu time    142.0604: real time    142.6803

 eigenvalue-minimisations  :     0
 total energy-change (2. order) :-0.8323722E-01  (-0.4433381E-01)
 number of electron     457.9999851 magnetization
 augmentation part      155.5668428 magnetization

 DIPCOR: dipole corrections for dipol
 direction  3 min pos     1,
 dipolmoment           0.000000      0.000000      0.144112 electrons x Angstroem
 Tr[quadrupol]     -6218.080269

 energy correction for charged system         0.000000 eV
 dipol+quadrupol energy correction           -0.001268 eV
 added-field ion interaction         -1.180452 eV  (added to PSCEN)


 Free energy of the ion-electron system (eV)
  ---------------------------------------------------
  alpha Z        PSCENC =       929.90163009
  Ewald energy   TEWEN  =    141776.57672692
  -Hartree energ DENC   =   -179650.07856759
  -exchange      EXHF   =      1630.38436139
  -V(xc)+E(xc)   XCENC  =      1407.76707286
  PAW double counting   =     36576.03278301   -40179.93190500
  entropy T*S    EENTRO =        -0.00000000
  eigenvalues    EBANDS =    -11081.96599754
  atomic energy  EATOM  =     48107.52088990
  ---------------------------------------------------
  free energy    TOTEN  =      -483.79300596 eV

  energy without entropy =     -483.79300596  energy(sigma->0) =     -483.79300596
  exchange ACFDT corr.  =         0.00000000  see jH, gK, PRB 81, 115126


--------------------------------------------------------------------------------------------------------




--------------------------------------- Iteration      1(  15)  ---------------------------------------


    POTLOK:  cpu time      0.0333: real time      0.0335
    SETDIJ:  cpu time      0.0868: real time      0.0870
    TRIAL :  cpu time     70.9553: real time     71.2640
    CORREC:  cpu time     70.8459: real time     71.1506
    CHARGE:  cpu time      0.0753: real time      0.0756
    --------------------------------------------
      LOOP:  cpu time    141.9989: real time    142.6148

 eigenvalue-minimisations  :     0
 total energy-change (2. order) :-0.4434426E-01  (-0.2487076E-01)
 number of electron     457.9999851 magnetization
 augmentation part      155.5331598 magnetization

 DIPCOR: dipole corrections for dipol
 direction  3 min pos     1,
 dipolmoment           0.000000      0.000000      0.144840 electrons x Angstroem
 Tr[quadrupol]     -6218.256860

 energy correction for charged system         0.000000 eV
 dipol+quadrupol energy correction           -0.001281 eV
 added-field ion interaction         -1.186415 eV  (added to PSCEN)


 Free energy of the ion-electron system (eV)
  ---------------------------------------------------
  alpha Z        PSCENC =       929.88020273
  Ewald energy   TEWEN  =    141776.57672692
  -Hartree energ DENC   =   -179660.41943556
  -exchange      EXHF   =      1630.53799792
  -V(xc)+E(xc)   XCENC  =      1407.88209966
  PAW double counting   =     36584.89047941   -40188.82992861
  entropy T*S    EENTRO =        -0.00000000
  eigenvalues    EBANDS =    -11071.87638261
  atomic energy  EATOM  =     48107.52088990
  ---------------------------------------------------
  free energy    TOTEN  =      -483.83735023 eV

  energy without entropy =     -483.83735023  energy(sigma->0) =     -483.83735023
  exchange ACFDT corr.  =         0.00000000  see jH, gK, PRB 81, 115126


--------------------------------------------------------------------------------------------------------




--------------------------------------- Iteration      1(  16)  ---------------------------------------


    POTLOK:  cpu time      0.0330: real time      0.0331
    SETDIJ:  cpu time      0.0882: real time      0.0884
    TRIAL :  cpu time     70.9569: real time     71.2614
    CORREC:  cpu time     70.9258: real time     71.2297
    CHARGE:  cpu time      0.0748: real time      0.0751
    --------------------------------------------
      LOOP:  cpu time    142.0808: real time    142.6919

 eigenvalue-minimisations  :     0
 total energy-change (2. order) :-0.2486893E-01  (-0.1358584E-01)
 number of electron     457.9999851 magnetization
 augmentation part      155.5101819 magnetization

 DIPCOR: dipole corrections for dipol
 direction  3 min pos     1,
 dipolmoment           0.000000      0.000000      0.144407 electrons x Angstroem
 Tr[quadrupol]     -6218.403755

 energy correction for charged system         0.000000 eV
 dipol+quadrupol energy correction           -0.001273 eV
 added-field ion interaction         -1.182862 eV  (added to PSCEN)


 Free energy of the ion-electron system (eV)
  ---------------------------------------------------
  alpha Z        PSCENC =       929.87606707
  Ewald energy   TEWEN  =    141776.57672692
[...]
    261       7.1620      0.00000
    262       7.1756      0.00000
    263       7.5059      0.00000
    264       7.5459      0.00000
    265       7.7376      0.00000
    266       7.7420      0.00000
    267       7.7531      0.00000
    268       7.7606      0.00000
    269       7.7771      0.00000
    270       7.7796      0.00000
    271       7.8025      0.00000
    272       8.1745      0.00000
    273       8.5249      0.00000
    274       8.5338      0.00000
    275       8.7760      0.00000
    276       9.0072      0.00000
    277       9.0454      0.00000
    278       9.0976      0.00000
    279       9.1904      0.00000
    280       9.4076      0.00000
    281       9.4772      0.00000
    282       9.5013      0.00000
    283       9.5149      0.00000
    284       9.5211      0.00000
    285       9.5287      0.00000
    286       9.5371      0.00000
    287       9.5521      0.00000
    288       9.6150      0.00000
    289       9.7059      0.00000
    290       9.7685      0.00000
    291       9.8069      0.00000
    292       9.8995      0.00000
    293       9.9915      0.00000
    294      10.0260      0.00000
    295      10.0626      0.00000
    296      10.1181      0.00000
    297      10.1233      0.00000
    298      10.1567      0.00000
    299      10.1796      0.00000
    300      10.2003      0.00000
    301      10.2171      0.00000
    302      10.2748      0.00000
    303      10.3501      0.00000
    304      10.6647      0.00000


--------------------------------------------------------------------------------------------------------


 soft charge-density along one line, spin component           1
         0         1         2         3         4         5         6         7         8         9
 total charge-density along one line

 pseudopotential strength for first ion, spin component:           1
  9.955  13.236  -0.000   0.035   0.000   0.000  -0.107  -0.000
 13.236  17.598  -0.000   0.047   0.000   0.000  -0.142  -0.000
 -0.000  -0.000  -4.182  -0.000  -0.000   8.162   0.000   0.000
  0.035   0.047  -0.000  -4.221   0.000   0.000   8.230  -0.000
  0.000   0.000  -0.000   0.000  -4.182   0.000  -0.000   8.162
  0.000   0.000   8.162   0.000   0.000 -18.044  -0.000  -0.000
 -0.107  -0.142   0.000   8.230  -0.000  -0.000 -18.163   0.000
 -0.000  -0.000   0.000  -0.000   8.162  -0.000   0.000 -18.044
 total augmentation occupancy for first ion, spin component:           1
  8.328  -3.854  -0.000   2.137   0.000   0.000   0.407  -0.000
 -3.854   2.130   0.000  -1.617   0.000   0.000  -0.248   0.000
 -0.000   0.000   0.841   0.000   0.000   0.069   0.000   0.000
  2.137  -1.617   0.000   2.320   0.000   0.000   0.225   0.000
  0.000   0.000   0.000   0.000   0.841   0.000   0.000   0.069
  0.000   0.000   0.069   0.000   0.000   0.006   0.000   0.000
  0.407  -0.248   0.000   0.225   0.000   0.000   0.031  -0.000
 -0.000   0.000   0.000   0.000   0.069   0.000  -0.000   0.006


------------------------ aborting loop because EDIFF is reached ----------------------------------------


    FORLOC:  cpu time      0.0033: real time      0.0041
    FORHF :  cpu time     77.6404: real time     77.9417
    FORNL :  cpu time      0.2570: real time      0.2577
    STRESS:  cpu time      0.5363: real time      0.5381
    FORCOR:  cpu time      0.0327: real time      0.0328
    OFIELD:  cpu time      0.0001: real time      0.0001
    FORVDW:  cpu time      1.8312: real time      1.8436

  FORCE on cell =-STRESS in cart. coord.  units (eV):
  Direction    XX          YY          ZZ          XY          YZ          ZX
  --------------------------------------------------------------------------------------
  Alpha Z   931.06396   931.06396   931.06396
  Ewald  162499.44104162499.44104************     0.00000    -0.00000     0.00000
  Hartree172948.79464172948.79464************    -0.00000    -0.00000    -0.00000
  E(xc)   -1891.39762 -1891.39762 -1893.82430     0.00000    -0.00000     0.00000
  Local  ************************345321.86031    -0.00000     0.00000    -0.00000
  n-local  -728.61889  -728.91269  -762.14750     0.00001    -0.00000     0.00000
  augment   832.86849   832.86849   821.44662    -0.00000     0.00000    -0.00000
  Kinetic  7529.89661  7531.52004  7550.69666     0.00000     0.00001     0.00000
  Fock    -2519.15398 -2519.31534 -2518.42187    -0.00000     0.00000     0.00000
  vdW        -9.19946    -9.19947    -6.33140    -0.00000    -0.00000    -0.00000
  -------------------------------------------------------------------------------------
  Total     -29.92074   -29.92074    -2.32717     0.00000     0.00000     0.00000
  in kB     -32.34459   -32.34459    -2.51569     0.00000     0.00000     0.00000
  external pressure =      -22.40 kB  Pullay stress =        0.00 kB


 VOLUME and BASIS-vectors are now :
 -----------------------------------------------------------------------------
  energy-cutoff  :      600.00
  volume of cell :     1482.11
      direct lattice vectors                 reciprocal lattice vectors
     8.349111827  0.000000000  0.000000000     0.119773219  0.000000000  0.000000000
     0.000000000  8.349111827  0.000000000     0.000000000  0.119773219  0.000000000
     0.000000000  0.000000000 21.261833870     0.000000000  0.000000000  0.047032632

  length of vectors
     8.349111827  8.349111827 21.261833870     0.119773219  0.119773219  0.047032632


 FORCES acting on ions:
    Electron-Ion                     Ewald-Force                    Non-Local-Force
 -----------------------------------------------------------------------------------------------
   0.102E-12 0.817E-12 -.850E+03   0.311E-13 0.189E-13 0.822E+03   -.143E-22 0.728E-23 0.259E+02
   0.390E-12 0.545E-13 -.148E+04   -.247E-14 -.270E-14 0.154E+04   0.566E-24 -.239E-23 -.541E+02
   0.880E-01 -.374E-12 0.214E+04   -.857E-01 -.502E-13 -.213E+04   -.141E-02 0.419E-22 -.682E+01
   0.613E-12 0.690E-01 0.214E+04   -.841E-13 -.651E-01 -.213E+04   -.430E-22 -.252E-02 -.683E+01
   0.275E+00 0.275E+00 0.734E+03   -.254E+00 -.254E+00 -.735E+03   -.127E-01 -.127E-01 0.449E+00
   0.528E-12 -.118E-11 0.735E+03   0.176E-13 0.300E-11 -.735E+03   -.314E-23 -.713E-24 0.403E+00
   0.283E+01 -.929E-12 -.659E+03   -.280E+01 0.307E-11 0.660E+03   -.287E-01 0.188E-22 -.138E+00
   -.251E-12 0.350E+01 -.654E+03   0.199E-10 -.337E+01 0.655E+03   0.334E-22 -.110E+00 -.253E+00
   0.175E+02 0.175E+02 -.204E+04   -.176E+02 -.176E+02 0.203E+04   0.785E-01 0.785E-01 0.585E+01
   0.590E-12 -.101E-11 -.205E+04   -.357E-13 0.319E-11 0.204E+04   0.187E-22 0.161E-22 0.577E+01
   0.690E-01 -.123E-12 0.214E+04   -.651E-01 -.116E-11 -.213E+04   -.252E-02 0.749E-22 -.683E+01
   0.625E-12 -.690E-01 0.214E+04   0.227E-12 0.651E-01 -.213E+04   -.109E-21 0.252E-02 -.683E+01
   0.275E+00 -.275E+00 0.734E+03   -.254E+00 0.254E+00 -.735E+03   -.127E-01 0.127E-01 0.449E+00
   -.184E-12 0.817E-12 0.734E+03   0.455E-11 -.108E-10 -.735E+03   0.109E-22 0.130E-22 0.529E+00
   0.350E+01 -.860E-12 -.654E+03   -.337E+01 0.319E-11 0.655E+03   -.110E+00 -.214E-22 -.253E+00
   -.250E-12 -.350E+01 -.654E+03   0.231E-10 0.337E+01 0.655E+03   0.401E-22 0.110E+00 -.253E+00
   0.175E+02 -.175E+02 -.204E+04   -.176E+02 0.176E+02 0.203E+04   0.785E-01 -.785E-01 0.585E+01
   -.116E-12 -.118E-11 -.198E+04   0.172E-10 0.286E-11 0.197E+04   0.111E-22 -.178E-22 0.414E+01
   -.880E-01 -.402E-12 0.214E+04   0.857E-01 -.367E-14 -.213E+04   0.141E-02 -.350E-22 -.682E+01
   -.462E-13 0.880E-01 0.214E+04   0.868E-12 -.857E-01 -.213E+04   -.398E-22 -.141E-02 -.682E+01
   -.275E+00 0.275E+00 0.734E+03   0.254E+00 -.254E+00 -.735E+03   0.127E-01 -.127E-01 0.449E+00
   -.789E-13 -.885E-13 0.734E+03   -.161E-11 0.833E-13 -.734E+03   0.667E-23 -.439E-23 0.415E+00
   -.283E+01 -.104E-11 -.659E+03   0.280E+01 0.307E-11 0.660E+03   0.287E-01 0.160E-23 -.138E+00
   -.870E-12 0.283E+01 -.659E+03   0.304E-11 -.280E+01 0.660E+03   0.281E-22 -.287E-01 -.138E+00
   -.175E+02 0.175E+02 -.204E+04   0.176E+02 -.176E+02 0.203E+04   -.785E-01 0.785E-01 0.585E+01
   -.644E-13 -.340E-13 -.206E+04   -.165E-11 -.194E-11 0.205E+04   -.259E-22 0.367E-23 0.578E+01
   -.690E-01 0.568E-11 0.214E+04   0.651E-01 0.410E-12 -.213E+04   0.252E-02 0.142E-21 -.683E+01
   -.547E-13 -.880E-01 0.214E+04   0.111E-11 0.857E-01 -.213E+04   0.460E-22 0.141E-02 -.682E+01
   -.275E+00 -.275E+00 0.734E+03   0.254E+00 0.254E+00 -.735E+03   0.127E-01 0.127E-01 0.449E+00
   -.850E-12 0.722E-12 0.735E+03   0.167E-10 0.172E-11 -.735E+03   0.754E-23 -.964E-24 0.403E+00
   -.350E+01 -.570E-11 -.654E+03   0.337E+01 0.304E-11 0.655E+03   0.110E+00 -.104E-22 -.253E+00
   -.869E-12 -.283E+01 -.659E+03   0.318E-11 0.280E+01 0.660E+03   -.413E-22 0.287E-01 -.138E+00
   -.175E+02 -.175E+02 -.204E+04   0.176E+02 0.176E+02 0.203E+04   -.785E-01 -.785E-01 0.585E+01
   -.901E-12 -.102E-12 -.205E+04   0.317E-11 0.117E-12 0.204E+04   0.145E-23 -.379E-22 0.577E+01
   0.307E+00 0.502E-13 0.550E+03   -.303E+00 0.629E-12 -.550E+03   -.530E-02 -.330E-22 -.799E-01
   0.110E-12 0.192E+00 0.550E+03   0.614E-12 -.214E+00 -.550E+03   0.996E-23 0.255E-01 -.127E+00
   0.582E-01 0.582E-01 0.160E+04   -.552E-01 -.552E-01 -.161E+04   -.367E-02 -.367E-02 0.300E+01
   0.306E-12 -.408E-12 0.160E+04   0.119E-12 0.141E-12 -.161E+04   0.454E-23 -.139E-23 0.300E+01
   0.732E+01 -.735E-12 -.156E+04   -.725E+01 -.484E-12 0.157E+04   -.648E-01 -.583E-23 -.453E+01
   0.207E-12 0.228E+02 -.153E+04   0.156E-11 -.225E+02 0.154E+04   0.460E-23 -.278E+00 -.451E+01
   0.236E+01 0.236E+01 -.486E+03   -.235E+01 -.235E+01 0.485E+03   -.142E-01 -.142E-01 0.359E+00
   0.238E-12 -.490E-11 -.486E+03   0.973E-11 0.940E-11 0.486E+03   -.796E-24 -.123E-22 0.309E+00
   0.192E+00 0.650E-12 0.550E+03   -.214E+00 -.231E-12 -.550E+03   0.255E-01 -.167E-23 -.127E+00
   0.123E-12 -.192E+00 0.550E+03   -.275E-12 0.214E+00 -.550E+03   -.152E-23 -.255E-01 -.127E+00
   0.582E-01 -.582E-01 0.160E+04   -.552E-01 0.552E-01 -.161E+04   -.367E-02 0.367E-02 0.300E+01
   0.275E-12 0.926E-12 0.160E+04   0.115E-13 -.151E-12 -.161E+04   0.695E-23 -.269E-23 0.300E+01
   0.228E+02 -.817E-13 -.153E+04   -.225E+02 0.537E-12 0.154E+04   -.278E+00 -.603E-23 -.451E+01
   0.187E-12 -.228E+02 -.153E+04   0.258E-11 0.225E+02 0.154E+04   -.148E-22 0.278E+00 -.451E+01
   0.236E+01 -.236E+01 -.486E+03   -.235E+01 0.235E+01 0.485E+03   -.142E-01 0.142E-01 0.359E+00
   -.474E-11 -.409E-11 -.488E+03   0.983E-11 0.190E-10 0.488E+03   -.159E-22 -.179E-22 -.185E+00
   -.307E+00 0.596E-13 0.550E+03   0.303E+00 0.617E-12 -.550E+03   0.530E-02 0.550E-23 -.799E-01
   -.194E-12 0.307E+00 0.550E+03   0.226E-11 -.303E+00 -.550E+03   0.151E-22 -.530E-02 -.799E-01
   -.582E-01 0.582E-01 0.160E+04   0.552E-01 -.552E-01 -.161E+04   0.367E-02 -.367E-02 0.300E+01
   0.172E-13 0.470E-12 0.160E+04   0.406E-12 0.419E-14 -.161E+04   -.338E-23 0.747E-23 0.301E+01
   -.732E+01 -.722E-12 -.156E+04   0.725E+01 -.527E-12 0.157E+04   0.648E-01 0.104E-22 -.453E+01
   -.161E-12 0.732E+01 -.156E+04   -.472E-12 -.725E+01 0.157E+04   0.966E-23 -.648E-01 -.453E+01
   -.236E+01 0.236E+01 -.486E+03   0.235E+01 -.235E+01 0.485E+03   0.142E-01 -.142E-01 0.359E+00
   -.763E-13 -.870E-12 -.490E+03   0.183E-11 0.966E-11 0.490E+03   0.383E-23 -.719E-23 0.296E+00
   -.192E+00 0.892E-11 0.550E+03   0.214E+00 -.291E-12 -.550E+03   -.255E-01 0.769E-23 -.127E+00
   -.192E-12 -.307E+00 0.550E+03   0.147E-11 0.303E+00 -.550E+03   0.604E-22 0.530E-02 -.799E-01
   -.582E-01 -.582E-01 0.160E+04   0.552E-01 0.552E-01 -.161E+04   0.367E-02 0.367E-02 0.300E+01
   -.166E-13 0.899E-12 0.160E+04   0.338E-12 -.236E-12 -.161E+04   0.235E-23 0.194E-22 0.300E+01
   -.228E+02 0.411E-11 -.153E+04   0.225E+02 0.505E-12 0.154E+04   0.278E+00 0.185E-23 -.451E+01
   -.161E-12 -.732E+01 -.156E+04   0.555E-12 0.725E+01 0.157E+04   -.127E-22 0.648E-01 -.453E+01
   -.236E+01 -.236E+01 -.486E+03   0.235E+01 0.235E+01 0.485E+03   0.142E-01 0.142E-01 0.359E+00
   -.499E-11 -.487E-12 -.486E+03   0.190E-10 0.142E-12 0.486E+03   -.512E-22 0.339E-23 0.309E+00
 -----------------------------------------------------------------------------------------------
   0.111E-11 -.194E-10 0.572E+02   0.103E-12 -.151E-12 0.557E-11   -.156E-16 -.711E-16 -.468E+02


 POSITION                                       TOTAL-FORCE (eV/Angst)
 -----------------------------------------------------------------------------------
      4.17456      4.17456     16.28552        -0.000000      0.000000      0.007457
      4.17456      4.17456     17.41532        -0.000000     -0.000000     -0.002283
      2.08728      0.00000      7.50000         0.000627      0.000000      0.426177
      4.17456      2.08728      7.50000        -0.000000      0.000954      0.428264
      2.08728      2.08728      9.58728         0.006122      0.006122      0.058180
      4.17456      0.00000      9.58728        -0.000000     -0.000000      0.064928
      2.08834      0.00000     11.68564        -0.003687      0.000000      0.000845
      4.17456      2.09049     11.69080        -0.000000      0.008194      0.002612
      2.08546      2.08546     13.75756         0.003789      0.003789      0.000705
      4.17456      0.00000     13.75914        -0.000000      0.000000      0.005032
      2.08728      4.17456      7.50000         0.000954     -0.000000      0.428264
      4.17456      6.26183      7.50000        -0.000000     -0.000954      0.428264
      2.08728      6.26183      9.58728         0.006122     -0.006122      0.058180
      4.17456      4.17456      9.58728        -0.000000      0.000000      0.084190
      2.09049      4.17456     11.69080         0.008194     -0.000000      0.002612
      4.17456      6.25862     11.69080        -0.000000     -0.008194      0.002612
      2.08546      6.26365     13.75756         0.003789     -0.003789      0.000705
      4.17456      4.17456     13.80906        -0.000000      0.000000     -0.003253
      6.26183      0.00000      7.50000        -0.000627      0.000000      0.426177
      0.00000      2.08728      7.50000        -0.000000      0.000627      0.426177
      6.26183      2.08728      9.58728        -0.006122      0.006122      0.058180
      0.00000      0.00000      9.58728        -0.000000      0.000000      0.053160
      6.26078      0.00000     11.68564         0.003687     -0.000000      0.000845
      0.00000      2.08834     11.68564        -0.000000     -0.003687      0.000845
      6.26365      2.08546     13.75756        -0.003789      0.003789      0.000705
      0.00000      0.00000     13.75948        -0.000000      0.000000      0.006940
      6.26183      4.17456      7.50000        -0.000954      0.000000      0.428264
      0.00000      6.26183      7.50000        -0.000000     -0.000627      0.426177
      6.26183      6.26183      9.58728        -0.006122     -0.006122      0.058180
      0.00000      4.17456      9.58728        -0.000000      0.000000      0.064928
      6.25862      4.17456     11.69080        -0.008194     -0.000000      0.002612
      0.00000      6.26078     11.68564        -0.000000      0.003687      0.000845
      6.26365      6.26365     13.75756        -0.003789     -0.003789      0.000705
      0.00000      4.17456     13.75914        -0.000000     -0.000000      0.005032
      2.08728      0.00000      9.58728        -0.002044      0.000000      0.064735
      4.17456      2.08728      9.58728        -0.000000      0.008087      0.075911
      2.08728      2.08728      7.50000        -0.001272     -0.001272     -0.564556
      4.17456      0.00000      7.50000        -0.000000     -0.000000     -0.564691
      2.08542      0.00000     13.80987        -0.002581      0.000000      0.003028
      4.17456      2.07763     13.81211        -0.000000     -0.004783     -0.001807
      2.08732      2.08732     11.68122        -0.003626     -0.003626     -0.000483
      4.17456      0.00000     11.67985        -0.000000      0.000000     -0.001555
      2.08728      4.17456      9.58728         0.008087      0.000000      0.075911
      4.17456      6.26183      9.58728        -0.000000     -0.008087      0.075911
      2.08728      6.26183      7.50000        -0.001272      0.001272     -0.564556
      4.17456      4.17456      7.50000        -0.000000      0.000000     -0.566296
      2.07763      4.17456     13.81211        -0.004783      0.000000     -0.001807
      4.17456      6.27148     13.81211        -0.000000      0.004783     -0.001807
      2.08732      6.26179     11.68122        -0.003626      0.003626     -0.000483
      4.17456      4.17456     11.69109        -0.000000      0.000000     -0.004559
      6.26183      0.00000      9.58728         0.002044     -0.000000      0.064735
      0.00000      2.08728      9.58728        -0.000000     -0.002044      0.064735
      6.26183      2.08728      7.50000         0.001272     -0.001272     -0.564556
      0.00000      0.00000      7.50000        -0.000000      0.000000     -0.563522
      6.26369      0.00000     13.80987         0.002581      0.000000      0.003028
      0.00000      2.08542     13.80987        -0.000000     -0.002581      0.003028
      6.26179      2.08732     11.68122         0.003626     -0.003626     -0.000483
      0.00000      0.00000     11.67940        -0.000000      0.000000      0.006290
      6.26183      4.17456      9.58728        -0.008087     -0.000000      0.075911
      0.00000      6.26183      9.58728        -0.000000      0.002044      0.064735
      6.26183      6.26183      7.50000         0.001272      0.001272     -0.564556
      0.00000      4.17456      7.50000        -0.000000      0.000000     -0.564691
      6.27148      4.17456     13.81211         0.004783     -0.000000     -0.001807
      0.00000      6.26369     13.80987        -0.000000      0.002581      0.003028
      6.26179      6.26179     11.68122         0.003626      0.003626     -0.000483
      0.00000      4.17456     11.67985        -0.000000      0.000000     -0.001555
 -----------------------------------------------------------------------------------
    total drift:                                0.000000     -0.000000      0.008808


--------------------------------------------------------------------------------------------------------



  FREE ENERGIE OF THE ION-ELECTRON SYSTEM (eV)
  ---------------------------------------------------
  free  energy   TOTEN  =      -491.84538959 eV

  energy  without entropy=     -491.84538959  energy(sigma->0) =     -491.84538959



--------------------------------------------------------------------------------------------------------


    POTLOK:  cpu time      0.1876: real time      0.1880


--------------------------------------------------------------------------------------------------------


     LOOP+:  cpu time   4353.3441: real time   4372.2798
    4ORBIT:  cpu time      0.0000: real time      0.0000

 total amount of memory used by VASP MPI-rank0   206259. kBytes
=======================================================================

   base      :      30000. kBytes
   nonl-proj :      14358. kBytes
   fftplans  :       8009. kBytes
   grid      :       8190. kBytes
   one-center:         73. kBytes
   HF        :        101. kBytes
   nonlr-proj:      16843. kBytes
   wavefun   :       7308. kBytes
   fock_wrk  :     121377. kBytes



 General timing and accounting informations for this job:
 ========================================================

                  Total CPU time used (sec):     4355.969
                            User time (sec):     3903.014
                          System time (sec):      452.955
                         Elapsed time (sec):     4375.791

                   Maximum memory used (kb):      589724.
                   Average memory used (kb):          N/A

                          Minor page faults:       205999
                          Major page faults:          590
                 Voluntary context switches:         4704
