 vasp.6.3.0 20Jan22 (build Apr  1 2022 16:44:48) gamma-only
 executed on        HPECrayEX_GCC date 2023.01.23  22:02:45
 running  512 mpi-ranks, with    1 threads/rank
 distrk:  each k-point on  512 cores,    1 groups
 distr:  one band on NCORE=   8 cores,   64 groups


--------------------------------------------------------------------------------------------------------


 INCAR:
   SYSTEM = MgO-rocksalt
   ISMEAR = 0
   SIGMA = 0.05
   EDIFF = 1E-8
   ALGO = ALL
   ISTART = 0
   IBRION = 5
   POTIM = 0.01
   NFREE = 2
   ISYM = 0
   DIPOL = 0.5 0.5 0.5
   IDIPOL = 4
   LDIPOL = .TRUE.
   GGA = PE
   IVDW = 1
   VDW_C6 = 1.75 0.70
   VDW_R0 = 1.452 1.342
   ENCUT = 600
   PREC = Accurate
   LASPH = .TRUE.
   LREAL = .FALSE.
   ISPIN = 1
   NELM = 200
   NELMIN = 8
   NCORE = 8
   KPAR = 1
   LWAVE = .FALSE.
   LCHARG = .FALSE.

 POTCAR:    PAW_PBE C 08Apr2002
 POTCAR:    PAW_PBE O 08Apr2002
 POTCAR:    PAW_PBE C 08Apr2002
   SHA256 =  253f7b50bb8d59471dbedb8285d89021f4a42ed1a2c5d38a03a736e69125dd95 C/POTCAR
   COPYR  = (c) Copyright 08Apr2002 Georg Kresse
   COPYR  = This file is part of the software VASP. Any use, copying, and all other rights are regul
   COPYR  = If you do not have a valid VASP license, you may not use, copy or distribute this file.
   VRHFIN =C: s2p2
   LEXCH  = PE
   EATOM  =   147.1560 eV,   10.8157 Ry

   TITEL  = PAW_PBE C 08Apr2002
   LULTRA =        F    use ultrasoft PP ?
   IUNSCR =        1    unscreen: 0-lin 1-nonlin 2-no
   RPACOR =    1.200    partial core radius
   POMASS =   12.011; ZVAL   =    4.000    mass and valenz
   RCORE  =    1.500    outmost cutoff radius
   RWIGS  =    1.630; RWIGS  =    0.863    wigner-seitz radius (au A)
   ENMAX  =  400.000; ENMIN  =  300.000 eV
   ICORE  =        2    local potential
   LCOR   =        T    correct aug charges
   LPAW   =        T    paw PP
   EAUG   =  644.873
   DEXC   =    0.000
   RMAX   =    1.529    core radius for proj-oper
   RAUG   =    1.300    factor for augmentation sphere
   RDEP   =    1.501    radius for radial grids
   RDEPT  =    1.300    core radius for aug-charge

   Atomic configuration
    4 entries
     n  l   j            E        occ.
     1  0  0.50      -273.3789   2.0000
     2  0  0.50       -13.7508   2.0000
     2  1  0.50        -5.2854   2.0000
     3  2  1.50        -5.4423   0.0000
   Description
     l       E           TYP  RCUT    TYP  RCUT
     0    -13.7508458     23  1.200
     0     -8.2022199     23  1.200
     1     -5.2854383     23  1.500
     1     34.0145650     23  1.500
     2     -5.4423304      7  1.500
  local pseudopotential read in
  partial core-charges read in
  partial kinetic energy density read in
  atomic valenz-charges read in
  non local Contribution for L=           0  read in
    real space projection operators read in
  non local Contribution for L=           0  read in
    real space projection operators read in
  non local Contribution for L=           1  read in
    real space projection operators read in
  non local Contribution for L=           1  read in
    real space projection operators read in
    PAW grid and wavefunctions read in

   number of l-projection  operators is LMAX  =           4
   number of lm-projection operators is LMMAX =           8

 POTCAR:    PAW_PBE O 08Apr2002
   SHA256 =  818f92134a0a090dccd8ba1447fa70422a3b330e708bb4f08108d8ae51209ddf O/POTCAR
   COPYR  = (c) Copyright 08Apr2002 Georg Kresse
   COPYR  = This file is part of the software VASP. Any use, copying, and all other rights are regul
   COPYR  = If you do not have a valid VASP license, you may not use, copy or distribute this file.
   VRHFIN =O: s2p4
   LEXCH  = PE
   EATOM  =   432.3788 eV,   31.7789 Ry

   TITEL  = PAW_PBE O 08Apr2002
   LULTRA =        F    use ultrasoft PP ?
   IUNSCR =        1    unscreen: 0-lin 1-nonlin 2-no
   RPACOR =    1.200    partial core radius
   POMASS =   16.000; ZVAL   =    6.000    mass and valenz
   RCORE  =    1.520    outmost cutoff radius
   RWIGS  =    1.550; RWIGS  =    0.820    wigner-seitz radius (au A)
   ENMAX  =  400.000; ENMIN  =  300.000 eV
   ICORE  =        2    local potential
   LCOR   =        T    correct aug charges
   LPAW   =        T    paw PP
   EAUG   =  605.392
   DEXC   =    0.000
   RMAX   =    1.553    core radius for proj-oper
   RAUG   =    1.300    factor for augmentation sphere
   RDEP   =    1.550    radius for radial grids
   RDEPT  =    1.329    core radius for aug-charge

   Atomic configuration
    4 entries
     n  l   j            E        occ.
     1  0  0.50      -514.6923   2.0000
     2  0  0.50       -23.9615   2.0000
     2  1  0.50        -9.0305   4.0000
     3  2  1.50        -9.5241   0.0000
   Description
     l       E           TYP  RCUT    TYP  RCUT
     0    -23.9615318     23  1.200
     0     -9.5240782     23  1.200
     1     -9.0304911     23  1.520
     1      8.1634956     23  1.520
     2     -9.5240782      7  1.500
  local pseudopotential read in
  partial core-charges read in
  partial kinetic energy density read in
  kinetic energy density of atom read in
  atomic valenz-charges read in
  non local Contribution for L=           0  read in
    real space projection operators read in
  non local Contribution for L=           0  read in
    real space projection operators read in
  non local Contribution for L=           1  read in
    real space projection operators read in
  non local Contribution for L=           1  read in
    real space projection operators read in
    PAW grid and wavefunctions read in

   number of l-projection  operators is LMAX  =           4
   number of lm-projection operators is LMMAX =           8

  PAW_PBE C 08Apr2002                   :
 energy of atom  1       EATOM= -147.1560
 kinetic energy error for atom=    0.0057 (will be added to EATOM!!)
  PAW_PBE O 08Apr2002                   :
 energy of atom  2       EATOM= -432.3788
 kinetic energy error for atom=    0.0168 (will be added to EATOM!!)


 POSCAR:  C  O
  positions in direct lattice
  No initial velocities read in
 exchange correlation table for  LEXCH =        8
   RHO(1)=    0.500       N(1)  =     2000
   RHO(2)=  100.500       N(2)  =     4000



--------------------------------------------------------------------------------------------------------


 ion  position               nearest neighbor table
   1  0.500  0.500  0.473-   2 1.14
   2  0.500  0.500  0.527-   1 1.14


IMPORTANT INFORMATION: All symmetrisations will be switched off!
NOSYMM: (Re-)initialisation of all symmetry stuff for point group C_1.


----------------------------------------------------------------------------------------

                                     Primitive cell

  volume of cell :    8450.5313

  direct lattice vectors                    reciprocal lattice vectors
    20.000000000  0.000000000  0.000000000     0.050000000  0.000000000  0.000000000
     0.000000000 20.000000000  0.000000000     0.000000000  0.050000000  0.000000000
     0.000000000  0.000000000 21.126328287     0.000000000  0.000000000  0.047334302

  length of vectors
    20.000000000 20.000000000 21.126328287     0.050000000  0.050000000  0.047334302

  position of ions in fractional coordinates (direct lattice)
     0.500000000  0.500000000  0.472949755
     0.500000000  0.500000000  0.527050245

  ion indices of the primitive-cell ions
   primitive index   ion index
                 1           1
                 2           2

----------------------------------------------------------------------------------------



 KPOINTS: pymatgen v2020.8.13 with grid density =

Automatic generation of k-mesh.
 Grid dimensions read from file:
 generate k-points for:    1    1    1

 Generating k-lattice:

  Cartesian coordinates                     Fractional coordinates (reciprocal lattice)
     0.050000000  0.000000000  0.000000000     1.000000000  0.000000000  0.000000000
     0.000000000  0.050000000  0.000000000     0.000000000  1.000000000  0.000000000
     0.000000000  0.000000000  0.047334302     0.000000000  0.000000000  1.000000000

  Length of vectors
     0.050000000  0.050000000  0.047334302

  Shift w.r.t. Gamma in fractional coordinates (k-lattice)
     0.000000000  0.000000000  0.000000000


 Subroutine IBZKPT returns following result:
 ===========================================

 Found      1 irreducible k-points:

 Following reciprocal coordinates:
            Coordinates               Weight
  0.000000  0.000000  0.000000      1.000000

 Following cartesian coordinates:
            Coordinates               Weight
  0.000000  0.000000  0.000000      1.000000


 Subroutine IBZKPT_HF returns following result:
 ==============================================

 Found      1 k-points in 1st BZ
 the following      1 k-points will be used (e.g. in the exchange kernel)
 Following reciprocal coordinates:   # in IRBZ
  0.000000  0.000000  0.000000    1.00000000   1 t-inv F


--------------------------------------------------------------------------------------------------------




 Dimension of arrays:
   k-points           NKPTS =      1   k-points in BZ     NKDIM =      1   number of bands    NBANDS=     64
   number of dos      NEDOS =    301   number of ions     NIONS =      2
   non local maximal  LDIM  =      4   non local SUM 2l+1 LMDIM =      8
   total plane-waves  NPLWV = ******
   max r-space proj   IRMAX =      1   max aug-charges    IRDMAX=   7273
   dimension x,y,z NGX =   160 NGY =  160 NGZ =  180
   dimension x,y,z NGXF=   320 NGYF=  320 NGZF=  360
   support grid    NGXF=   320 NGYF=  320 NGZF=  360
   ions per type =               1   1
   NGX,Y,Z   is equivalent  to a cutoff of  13.30, 13.30, 14.16 a.u.
   NGXF,Y,Z  is equivalent  to a cutoff of  26.60, 26.60, 28.33 a.u.

 SYSTEM =  MgO-rocksalt
 POSCAR =   C  O

 Startparameter for this run:
   NWRITE =      2    write-flag & timer
   PREC   = accura    normal or accurate (medium, high low for compatibility)
   ISTART =      0    job   : 0-new  1-cont  2-samecut
   ICHARG =      2    charge: 1-file 2-atom 10-const
   ISPIN  =      1    spin polarized calculation?
   LNONCOLLINEAR =      F non collinear calculations
   LSORBIT =      F    spin-orbit coupling
   INIWAV =      1    electr: 0-lowe 1-rand  2-diag
   LASPH  =      T    aspherical Exc in radial PAW
 Electronic Relaxation 1
   ENCUT  =  600.0 eV  44.10 Ry    6.64 a.u.  39.94 39.94 42.19*2*pi/ulx,y,z
   ENINI  =  600.0     initial cutoff
   ENAUG  =  644.9 eV  augmentation charge cutoff
   NELM   =    200;   NELMIN=  8; NELMDL= -5     # of ELM steps
   EDIFF  = 0.1E-07   stopping-criterion for ELM
   LREAL  =      F    real-space projection
   NLSPLINE    = F    spline interpolate recip. space projectors
   LCOMPAT=      F    compatible to vasp.4.4
   GGA_COMPAT  = T    GGA compatible to vasp.4.4-vasp.4.6
   LMAXPAW     = -100 max onsite density
   LMAXMIX     =    2 max onsite mixed and CHGCAR
   VOSKOWN=      0    Vosko Wilk Nusair interpolation
   ROPT   =    0.00000   0.00000
 Ionic relaxation
   EDIFFG = 0.1E-06   stopping-criterion for IOM
   NSW    =     61    number of steps for IOM
   NBLOCK =      1;   KBLOCK =     61    inner block; outer block
   IBRION =      5    ionic relax: 0-MD 1-quasi-New 2-CG
   NFREE  =      2    steps in history (QN), initial steepest desc. (CG)
   ISIF   =      2    stress and relaxation
   IWAVPR =     11    prediction:  0-non 1-charg 2-wave 3-comb
   ISYM   =      0    0-nonsym 1-usesym 2-fastsym
   LCORR  =      T    Harris-Foulkes like correction to forces

   POTIM  = 0.0100    time-step for ionic-motion
   TEIN   =    0.0    initial temperature
   TEBEG  =    0.0;   TEEND  =   0.0 temperature during run
   SMASS  =  -3.00    Nose mass-parameter (am)
   estimated Nose-frequenzy (Omega)   =  0.10E-29 period in steps = 0.63E+48 mass=  -0.914E-26a.u.
   SCALEE = 1.0000    scale energy and forces
   NPACO  =    256;   APACO  = 10.0  distance and # of slots for P.C.
   PSTRESS=    0.0 pullay stress

  Mass of Ions in am
   POMASS =  12.01 16.00
  Ionic Valenz
   ZVAL   =   4.00  6.00
  Atomic Wigner-Seitz radii
   RWIGS  =  -1.00 -1.00
  virtual crystal weights
   VCA    =   1.00  1.00
   NELECT =      10.0000    total number of electrons
   NUPDOWN=      -1.0000    fix difference up-down

 DOS related values:
   EMIN   =  10.00;   EMAX   =-10.00  energy-range for DOS
   EFERMI =   0.00
   ISMEAR =     0;   SIGMA  =   0.05  broadening in eV -4-tet -1-fermi 0-gaus

 Electronic relaxation 2 (details)
   IALGO  =     58    algorithm
   LDIAG  =      T    sub-space diagonalisation (order eigenvalues)
   LSUBROT=      F    optimize rotation matrix (better conditioning)
   TURBO    =      0    0=normal 1=particle mesh
   IRESTART =      0    0=no restart 2=restart with 2 vectors
   NREBOOT  =      0    no. of reboots
   NMIN     =      0    reboot dimension
   EREF     =   0.00    reference energy to select bands
   IMIX   =      4    mixing-type and parameters
     AMIX     =   0.40;   BMIX     =  1.00
     AMIX_MAG =   1.60;   BMIX_MAG =  1.00
     AMIN     =   0.10
     WC   =   100.;   INIMIX=   1;  MIXPRE=   1;  MAXMIX= -45

 Intra band minimization:
   WEIMIN = 0.0010     energy-eigenvalue tresh-hold
   EBREAK =  0.39E-10  absolut break condition
   DEPER  =   0.30     relativ break condition

   TIME   =   0.40     timestep for ELM

  volume/ion in A,a.u.               =    4225.27     28513.50
  Fermi-wavevector in a.u.,A,eV,Ry     =   0.173160  0.327224  0.407961  0.029984
  Thomas-Fermi vector in A             =   0.887314

 Write flags
   LWAVE        =      F    write WAVECAR
   LDOWNSAMPLE  =      F    k-point downsampling of WAVECAR
   LCHARG       =      F    write CHGCAR
   LVTOT        =      F    write LOCPOT, total local potential
   LVHAR        =      F    write LOCPOT, Hartree potential only
   LELF         =      F    write electronic localiz. function (ELF)
   LORBIT       =      0    0 simple, 1 ext, 2 COOP (PROOUT), +10 PAW based schemes


 Dipole corrections
   LMONO  =      F    monopole corrections only (constant potential shift)
   LDIPOL =      T    correct potential (dipole corrections)
   IDIPOL =      4    1-x, 2-y, 3-z, 4-all directions
   EPSILON=  1.0000000 bulk dielectric constant

 Exchange correlation treatment:
   GGA     =    PE    GGA type
   LEXCH   =     8    internal setting for exchange type
   LIBXC   =     F    Libxc
   VOSKOWN =     0    Vosko Wilk Nusair interpolation
   LHFCALC =     F    Hartree Fock is set to
   LHFONE  =     F    Hartree Fock one center treatment
   AEXX    =    0.0000 exact exchange contribution

 Linear response parameters
   LEPSILON=     F    determine dielectric tensor
   LRPA    =     F    only Hartree local field effects (RPA)
   LNABLA  =     F    use nabla operator in PAW spheres
   LVEL    =     F    velocity operator in full k-point grid
   CSHIFT  =0.1000    complex shift for real part using Kramers Kronig
   OMEGAMAX=  -1.0    maximum frequency
   DEG_THRESHOLD= 0.2000000E-02 threshold for treating states as degnerate
   RTIME   =   -0.100 relaxation time in fs
  (WPLASMAI=    0.000 imaginary part of plasma frequency in eV, 0.658/RTIME)
   DFIELD  = 0.0000000 0.0000000 0.0000000 field for delta impulse in time

  Optional k-point grid parameters
   LKPOINTS_OPT  =     F    use optional k-point grid
   KPOINTS_OPT_MODE=     1    mode for optional k-point grid

 Orbital magnetization related:
   ORBITALMAG=     F  switch on orbital magnetization
   LCHIMAG   =     F  perturbation theory with respect to B field
   DQ        =  0.001000  dq finite difference perturbation B field
   LLRAUG    =     F  two centre corrections for induced B field



--------------------------------------------------------------------------------------------------------


 finite differences
 charge density and potential will be updated during run
 non-spin polarized calculation
 Conjugate gradient for all bands (Freysoldt, et al. PRB 79, 241103 (2009))
 preconditioned conjugated gradient
 perform sub-space diagonalisation
    before iterative eigenvector-optimisation
 modified Broyden-mixing scheme, WC =      100.0
 initial mixing is a Kerker type mixing with AMIX =  0.4000 and BMIX =      1.0000
 Hartree-type preconditioning will be used
 using additional bands           59
 reciprocal scheme for non local part
 use partial core corrections
 no Harris-corrections to forces
 use gradient corrections
 use of overlap-Matrix (Vanderbilt PP)
 Gauss-broadening in eV      SIGMA  =   0.05


--------------------------------------------------------------------------------------------------------


  energy-cutoff  :      600.00
  volume of cell :     8450.53
      direct lattice vectors                 reciprocal lattice vectors
    20.000000000  0.000000000  0.000000000     0.050000000  0.000000000  0.000000000
     0.000000000 20.000000000  0.000000000     0.000000000  0.050000000  0.000000000
     0.000000000  0.000000000 21.126328287     0.000000000  0.000000000  0.047334302

  length of vectors
    20.000000000 20.000000000 21.126328287     0.050000000  0.050000000  0.047334302



 k-points in units of 2pi/SCALE and weight: pymatgen v2020.8.13 with grid density =
   0.00000000  0.00000000  0.00000000       1.000

 k-points in reciprocal lattice and weights: pymatgen v2020.8.13 with grid density =
   0.00000000  0.00000000  0.00000000       1.000

 position of ions in fractional coordinates (direct lattice)
   0.50000000  0.50000000  0.47294975
   0.50000000  0.50000000  0.52705025

 position of ions in cartesian coordinates  (Angst):
  10.00000000 10.00000000  9.99169178
  10.00000000 10.00000000 11.13463651



--------------------------------------------------------------------------------------------------------


 use parallel FFT for orbitals z direction half grid
 k-point   1 :   0.0000 0.0000 0.0000  plane waves:  140949

 maximum and minimum number of plane-waves per node :     17623    17611

 maximum number of plane-waves:    140949
 maximum index in each direction:
   IXMAX=   39   IYMAX=   39   IZMAX=   42
   IXMIN=  -39   IYMIN=  -39   IZMIN=    0


 parallel 3D FFT for wavefunctions:
    minimum data exchange during FFTs selected (reduces bandwidth)
 parallel 3D FFT for charge:
    minimum data exchange during FFTs selected (reduces bandwidth)


 total amount of memory used by VASP MPI-rank0    79043. kBytes
=======================================================================

   base      :      30000. kBytes
   nonl-proj :       2826. kBytes
   fftplans  :      15799. kBytes
   grid      :      29568. kBytes
   one-center:          1. kBytes
   wavefun   :        849. kBytes

     INWAV:  cpu time      0.0001: real time      0.0000
 Broyden mixing: mesh for mixing (old mesh)
   NGX = 79   NGY = 79   NGZ = 85
  (NGX  =320   NGY  =320   NGZ  =360)
  gives a total of 530485 points

 initial charge density was supplied:
 charge density of overlapping atoms calculated
 number of electron      10.0000000 magnetization
 keeping initial charge density in first step


--------------------------------------------------------------------------------------------------------


 Maximum index for augmentation-charges            0 (set IRDMAX)


--------------------------------------------------------------------------------------------------------


 First call to EWALD:  gamma=   0.087
 Maximum number of real-space cells 3x 3x 3
 Maximum number of reciprocal cells 3x 3x 3

    FEWALD:  cpu time      0.0012: real time      0.0012


--------------------------------------- Iteration      1(   1)  ---------------------------------------


    POTLOK:  cpu time      0.1477: real time      0.1485
    SETDIJ:  cpu time      0.0753: real time      0.0757
    TRIAL :  cpu time      0.2376: real time      0.2379
    CORREC:  cpu time      0.0011: real time      0.0011
    --------------------------------------------
      LOOP:  cpu time      0.4626: real time      0.5003

 eigenvalue-minimisations  :   192
 total energy-change (2. order) : 0.8756413E+02  (-0.2617293E+03)
 number of electron      10.0000000 magnetization
 augmentation part       10.0000000 magnetization

 DIPCOR: dipole corrections for dipol
 direction  1 min pos     1, direction  2 min pos     1, direction  3 min pos     1,
 dipolmoment          -0.000000     -0.000000      0.000002 electrons x Angstroem
 Tr[quadrupol]         5.891515

 energy correction for charged system         0.000000 eV
 dipol+quadrupol energy correction           -0.000000 eV
 added-field ion interaction         -0.000000 eV  (added to PSCEN)


 Free energy of the ion-electron system (eV)
  ---------------------------------------------------
  alpha Z        PSCENC =         0.05170769
  Ewald energy   TEWEN  =       202.27602895
  -Hartree energ DENC   =      -661.84908575
  -exchange      EXHF   =         0.00000000
  -V(xc)+E(xc)   XCENC  =        39.20152703
  PAW double counting   =       455.07152327     -457.43959975
  entropy T*S    EENTRO =        -0.02203960
  eigenvalues    EBANDS =       -69.23819634
  atomic energy  EATOM  =       579.51226814
  ---------------------------------------------------
  free energy    TOTEN  =        87.56413364 eV

  energy without entropy =       87.58617324  energy(sigma->0) =       87.57515344


--------------------------------------------------------------------------------------------------------




--------------------------------------- Iteration      1(   2)  ---------------------------------------


    TRIAL :  cpu time      0.3469: real time      0.3470
    CORREC:  cpu time      0.0002: real time      0.0002
    --------------------------------------------
      LOOP:  cpu time      0.3526: real time      0.3618

 eigenvalue-minimisations  :   256
 total energy-change (2. order) :-0.1008178E+03  (-0.9962613E+02)
 number of electron      10.0000000 magnetization
 augmentation part       10.0000000 magnetization

 DIPCOR: dipole corrections for dipol
 direction  1 min pos     1, direction  2 min pos     1, direction  3 min pos     1,
 dipolmoment          -0.000000     -0.000000      0.000002 electrons x Angstroem
 Tr[quadrupol]         5.891515

 energy correction for charged system         0.000000 eV
 dipol+quadrupol energy correction           -0.000000 eV
 added-field ion interaction         -0.000000 eV  (added to PSCEN)


 Free energy of the ion-electron system (eV)
  ---------------------------------------------------
  alpha Z        PSCENC =         0.05170769
  Ewald energy   TEWEN  =       202.27602895
  -Hartree energ DENC   =      -661.84908575
  -exchange      EXHF   =         0.00000000
  -V(xc)+E(xc)   XCENC  =        39.20152703
  PAW double counting   =       455.07152327     -457.43959975
  entropy T*S    EENTRO =        -0.00000000
  eigenvalues    EBANDS =      -170.07805930
  atomic energy  EATOM  =       579.51226814
  ---------------------------------------------------
  free energy    TOTEN  =       -13.25368971 eV

  energy without entropy =      -13.25368971  energy(sigma->0) =      -13.25368971


--------------------------------------------------------------------------------------------------------




--------------------------------------- Iteration      1(   3)  ---------------------------------------


    TRIAL :  cpu time      0.1422: real time      0.1422
    CORREC:  cpu time      0.0002: real time      0.0002
    --------------------------------------------
      LOOP:  cpu time      0.1486: real time      0.1567

 eigenvalue-minimisations  :   128
 total energy-change (2. order) :-0.2340379E+01  (-0.2340379E+01)
 number of electron      10.0000000 magnetization
 augmentation part       10.0000000 magnetization

 DIPCOR: dipole corrections for dipol
 direction  1 min pos     1, direction  2 min pos     1, direction  3 min pos     1,
 dipolmoment          -0.000000     -0.000000      0.000002 electrons x Angstroem
 Tr[quadrupol]         5.891515

 energy correction for charged system         0.000000 eV
 dipol+quadrupol energy correction           -0.000000 eV
 added-field ion interaction         -0.000000 eV  (added to PSCEN)


 Free energy of the ion-electron system (eV)
  ---------------------------------------------------
  alpha Z        PSCENC =         0.05170769
  Ewald energy   TEWEN  =       202.27602895
  -Hartree energ DENC   =      -661.84908575
  -exchange      EXHF   =         0.00000000
  -V(xc)+E(xc)   XCENC  =        39.20152703
  PAW double counting   =       455.07152327     -457.43959975
  entropy T*S    EENTRO =        -0.00000000
  eigenvalues    EBANDS =      -172.41843833
  atomic energy  EATOM  =       579.51226814
  ---------------------------------------------------
  free energy    TOTEN  =       -15.59406875 eV

  energy without entropy =      -15.59406875  energy(sigma->0) =      -15.59406875


--------------------------------------------------------------------------------------------------------




--------------------------------------- Iteration      1(   4)  ---------------------------------------


    TRIAL :  cpu time      0.2206: real time      0.2206
    CORREC:  cpu time      0.0002: real time      0.0002
    --------------------------------------------
      LOOP:  cpu time      0.2350: real time      0.2352

 eigenvalue-minimisations  :   192
 total energy-change (2. order) :-0.1269431E-01  (-0.1269431E-01)
 number of electron      10.0000000 magnetization
 augmentation part       10.0000000 magnetization

 DIPCOR: dipole corrections for dipol
 direction  1 min pos     1, direction  2 min pos     1, direction  3 min pos     1,
 dipolmoment          -0.000000     -0.000000      0.000002 electrons x Angstroem
 Tr[quadrupol]         5.891515

 energy correction for charged system         0.000000 eV
 dipol+quadrupol energy correction           -0.000000 eV
 added-field ion interaction         -0.000000 eV  (added to PSCEN)


 Free energy of the ion-electron system (eV)
  ---------------------------------------------------
  alpha Z        PSCENC =         0.05170769
  Ewald energy   TEWEN  =       202.27602895
  -Hartree energ DENC   =      -661.84908575
  -exchange      EXHF   =         0.00000000
  -V(xc)+E(xc)   XCENC  =        39.20152703
  PAW double counting   =       455.07152327     -457.43959975
  entropy T*S    EENTRO =        -0.00000000
  eigenvalues    EBANDS =      -172.43113264
  atomic energy  EATOM  =       579.51226814
  ---------------------------------------------------
  free energy    TOTEN  =       -15.60676306 eV

  energy without entropy =      -15.60676306  energy(sigma->0) =      -15.60676306


--------------------------------------------------------------------------------------------------------




--------------------------------------- Iteration      1(   5)  ---------------------------------------


    TRIAL :  cpu time      0.1409: real time      0.1409
    CORREC:  cpu time      0.0002: real time      0.0002
    CHARGE:  cpu time      0.0624: real time      0.0626
    --------------------------------------------
      LOOP:  cpu time      0.2083: real time      0.2181

 eigenvalue-minimisations  :   128
 total energy-change (2. order) :-0.3585248E-05  (-0.3585289E-05)
 number of electron       9.9999999 magnetization
 augmentation part        0.7288468 magnetization

 DIPCOR: dipole corrections for dipol
 direction  1 min pos     1, direction  2 min pos     1, direction  3 min pos     1,
 dipolmoment          -0.000000     -0.000000      0.000002 electrons x Angstroem
 Tr[quadrupol]         5.891515

 energy correction for charged system         0.000000 eV
 dipol+quadrupol energy correction           -0.000000 eV
 added-field ion interaction         -0.000000 eV  (added to PSCEN)


 Free energy of the ion-electron system (eV)
  ---------------------------------------------------
  alpha Z        PSCENC =         0.05170769
  Ewald energy   TEWEN  =       202.27602895
  -Hartree energ DENC   =      -661.84908575
  -exchange      EXHF   =         0.00000000
  -V(xc)+E(xc)   XCENC  =        39.20152703
  PAW double counting   =       455.07152327     -457.43959975
  entropy T*S    EENTRO =        -0.00000000
  eigenvalues    EBANDS =      -172.43113623
  atomic energy  EATOM  =       579.51226814
  ---------------------------------------------------
  free energy    TOTEN  =       -15.60676665 eV

  energy without entropy =      -15.60676665  energy(sigma->0) =      -15.60676665


--------------------------------------------------------------------------------------------------------




--------------------------------------- Iteration      1(   6)  ---------------------------------------


    POTLOK:  cpu time      0.1352: real time      0.1352
    SETDIJ:  cpu time      0.0757: real time      0.0757
    TRIAL :  cpu time      6.4463: real time      6.4481
    CORREC:  cpu time      0.3054: real time      0.3057
    CHARGE:  cpu time      0.0430: real time      0.0430
    --------------------------------------------
      LOOP:  cpu time      7.0190: real time      7.0212

 eigenvalue-minimisations  :     0
 total energy-change (2. order) : 0.1784293E+01  (-0.8044346E+00)
 number of electron       9.9999999 magnetization
 augmentation part        0.6782026 magnetization

 DIPCOR: dipole corrections for dipol
 direction  1 min pos     1, direction  2 min pos     1, direction  3 min pos     1,
 dipolmoment           0.000002     -0.000002      0.040898 electrons x Angstroem
 Tr[quadrupol]         5.584659

 energy correction for charged system         0.000000 eV
 dipol+quadrupol energy correction           -0.000005 eV
 added-field ion interaction         -0.000279 eV  (added to PSCEN)


 Free energy of the ion-electron system (eV)
  ---------------------------------------------------
  alpha Z        PSCENC =         0.05072223
  Ewald energy   TEWEN  =       202.27602895
  -Hartree energ DENC   =      -709.02897346
  -exchange      EXHF   =         0.00000000
  -V(xc)+E(xc)   XCENC  =        41.84759520
  PAW double counting   =       848.19823300     -851.04070691
  entropy T*S    EENTRO =        -0.00000000
  eigenvalues    EBANDS =      -125.63764073
  atomic energy  EATOM  =       579.51226814
  ---------------------------------------------------
  free energy    TOTEN  =       -13.82247358 eV

  energy without entropy =      -13.82247358  energy(sigma->0) =      -13.82247358


--------------------------------------------------------------------------------------------------------




--------------------------------------- Iteration      1(   7)  ---------------------------------------


    POTLOK:  cpu time      0.1385: real time      0.1385
    SETDIJ:  cpu time      0.0754: real time      0.0754
    TRIAL :  cpu time      0.0981: real time      0.0981
    CORREC:  cpu time      0.3049: real time      0.3049
    CHARGE:  cpu time      0.0423: real time      0.0423
    --------------------------------------------
      LOOP:  cpu time      0.6643: real time      0.6731

 eigenvalue-minimisations  :     0
 total energy-change (2. order) :-0.8115177E+00  (-0.1067363E+00)
 number of electron       9.9999999 magnetization
 augmentation part        0.6596906 magnetization

 DIPCOR: dipole corrections for dipol
 direction  1 min pos     1, direction  2 min pos     1, direction  3 min pos     1,
 dipolmoment           0.000001     -0.000000      0.021987 electrons x Angstroem
 Tr[quadrupol]         5.310449

 energy correction for charged system         0.000000 eV
 dipol+quadrupol energy correction           -0.000001 eV
 added-field ion interaction         -0.000150 eV  (added to PSCEN)


 Free energy of the ion-electron system (eV)
  ---------------------------------------------------
  alpha Z        PSCENC =         0.05120247
  Ewald energy   TEWEN  =       202.27602895
  -Hartree energ DENC   =      -686.10744274
  -exchange      EXHF   =         0.00000000
  -V(xc)+E(xc)   XCENC  =        40.59874841
  PAW double counting   =       829.45962037     -832.09636036
  entropy T*S    EENTRO =        -0.00000000
  eigenvalues    EBANDS =      -148.32805650
  atomic energy  EATOM  =       579.51226814
  ---------------------------------------------------
  free energy    TOTEN  =       -14.63399126 eV

  energy without entropy =      -14.63399126  energy(sigma->0) =      -14.63399126


--------------------------------------------------------------------------------------------------------




--------------------------------------- Iteration      1(   8)  ---------------------------------------


    POTLOK:  cpu time      0.1372: real time      0.1372
    SETDIJ:  cpu time      0.0756: real time      0.0756
    TRIAL :  cpu time      0.0979: real time      0.0979
    CORREC:  cpu time      0.3069: real time      0.3069
    CHARGE:  cpu time      0.0420: real time      0.0420
    --------------------------------------------
      LOOP:  cpu time      0.6731: real time      0.6733

 eigenvalue-minimisations  :     0
 total energy-change (2. order) :-0.1067153E+00  (-0.3785005E-01)
 number of electron       9.9999999 magnetization
 augmentation part        0.6563702 magnetization

 DIPCOR: dipole corrections for dipol
 direction  1 min pos     1, direction  2 min pos     1, direction  3 min pos     1,
 dipolmoment           0.000000      0.000000     -0.022220 electrons x Angstroem
 Tr[quadrupol]         5.297076

 energy correction for charged system         0.000000 eV
 dipol+quadrupol energy correction           -0.000001 eV
 added-field ion interaction          0.000152 eV  (added to PSCEN)


 Free energy of the ion-electron system (eV)
  ---------------------------------------------------
  alpha Z        PSCENC =         0.05161193
  Ewald energy   TEWEN  =       202.27602895
  -Hartree energ DENC   =      -684.10809482
  -exchange      EXHF   =         0.00000000
  -V(xc)+E(xc)   XCENC  =        40.48658161
  PAW double counting   =       834.75526050     -837.26744487
  entropy T*S    EENTRO =        -0.00000000
  eigenvalues    EBANDS =      -150.44691797
  atomic energy  EATOM  =       579.51226814
  ---------------------------------------------------
  free energy    TOTEN  =       -14.74070653 eV

  energy without entropy =      -14.74070653  energy(sigma->0) =      -14.74070653


--------------------------------------------------------------------------------------------------------




--------------------------------------- Iteration      1(   9)  ---------------------------------------


    POTLOK:  cpu time      0.1388: real time      0.1388
    SETDIJ:  cpu time      0.0754: real time      0.0754
    TRIAL :  cpu time      0.0976: real time      0.0976
    CORREC:  cpu time      0.3031: real time      0.3031
    CHARGE:  cpu time      0.0428: real time      0.0428
    --------------------------------------------
      LOOP:  cpu time      0.6620: real time      0.6714

 eigenvalue-minimisations  :     0
 total energy-change (2. order) :-0.3784448E-01  (-0.1122041E-01)
 number of electron       9.9999999 magnetization
 augmentation part        0.6565189 magnetization

 DIPCOR: dipole corrections for dipol
 direction  1 min pos     1, direction  2 min pos     1, direction  3 min pos     1,
 dipolmoment           0.000000     -0.000000     -0.033487 electrons x Angstroem
 Tr[quadrupol]         5.304551

 energy correction for charged system         0.000000 eV
 dipol+quadrupol energy correction           -0.000003 eV
 added-field ion interaction          0.000228 eV  (added to PSCEN)


 Free energy of the ion-electron system (eV)
  ---------------------------------------------------
  alpha Z        PSCENC =         0.05187817
  Ewald energy   TEWEN  =       202.27602895
  -Hartree energ DENC   =      -683.74032384
  -exchange      EXHF   =         0.00000000
  -V(xc)+E(xc)   XCENC  =        40.46785389
  PAW double counting   =       839.40389973     -841.88467825
  entropy T*S    EENTRO =        -0.00000000
  eigenvalues    EBANDS =      -150.86547781
  atomic energy  EATOM  =       579.51226814
  ---------------------------------------------------
  free energy    TOTEN  =       -14.77855101 eV

  energy without entropy =      -14.77855101  energy(sigma->0) =      -14.77855101


--------------------------------------------------------------------------------------------------------




--------------------------------------- Iteration      1(  10)  ---------------------------------------


    POTLOK:  cpu time      0.1377: real time      0.1377
    SETDIJ:  cpu time      0.0755: real time      0.0755
    TRIAL :  cpu time      0.0973: real time      0.0973
    CORREC:  cpu time      0.3073: real time      0.3073
    CHARGE:  cpu time      0.0423: real time      0.0423
    --------------------------------------------
      LOOP:  cpu time      0.6737: real time      0.6739

 eigenvalue-minimisations  :     0
 total energy-change (2. order) :-0.1120930E-01  (-0.4712615E-02)
 number of electron       9.9999999 magnetization
 augmentation part        0.6562918 magnetization

 DIPCOR: dipole corrections for dipol
 direction  1 min pos     1, direction  2 min pos     1, direction  3 min pos     1,
 dipolmoment           0.000000     -0.000000     -0.036725 electrons x Angstroem
 Tr[quadrupol]         5.324491

 energy correction for charged system         0.000000 eV
 dipol+quadrupol energy correction           -0.000004 eV
 added-field ion interaction          0.000251 eV  (added to PSCEN)


 Free energy of the ion-electron system (eV)
  ---------------------------------------------------
  alpha Z        PSCENC =         0.05195337
  Ewald energy   TEWEN  =       202.27602895
  -Hartree energ DENC   =      -683.40332175
  -exchange      EXHF   =         0.00000000
  -V(xc)+E(xc)   XCENC  =        40.45367738
  PAW double counting   =       840.85043733     -843.32932962
  entropy T*S    EENTRO =        -0.00000000
  eigenvalues    EBANDS =      -151.20147412
  atomic energy  EATOM  =       579.51226814
  ---------------------------------------------------
  free energy    TOTEN  =       -14.78976031 eV

  energy without entropy =      -14.78976031  energy(sigma->0) =      -14.78976031


--------------------------------------------------------------------------------------------------------




--------------------------------------- Iteration      1(  11)  ---------------------------------------


    POTLOK:  cpu time      0.1377: real time      0.1378
    SETDIJ:  cpu time      0.0756: real time      0.0756
    TRIAL :  cpu time      0.0967: real time      0.0967
    CORREC:  cpu time      0.3021: real time      0.3022
    CHARGE:  cpu time      0.0427: real time      0.0427
    --------------------------------------------
      LOOP:  cpu time      0.6604: real time      0.6687

 eigenvalue-minimisations  :     0
 total energy-change (2. order) :-0.4702980E-02  (-0.1865051E-02)
 number of electron       9.9999999 magnetization
 augmentation part        0.6563564 magnetization

 DIPCOR: dipole corrections for dipol
 direction  1 min pos     1, direction  2 min pos     1, direction  3 min pos     1,
 dipolmoment           0.000000     -0.000000     -0.035191 electrons x Angstroem
 Tr[quadrupol]         5.342595

 energy correction for charged system         0.000000 eV
 dipol+quadrupol energy correction           -0.000004 eV
 added-field ion interaction          0.000240 eV  (added to PSCEN)


 Free energy of the ion-electron system (eV)
  ---------------------------------------------------
  alpha Z        PSCENC =         0.05195465
  Ewald energy   TEWEN  =       202.27602895
  -Hartree energ DENC   =      -683.14719946
  -exchange      EXHF   =         0.00000000
  -V(xc)+E(xc)   XCENC  =        40.44242482
  PAW double counting   =       840.74190644     -843.21860910
  entropy T*S    EENTRO =        -0.00000000
  eigenvalues    EBANDS =      -151.45323774
  atomic energy  EATOM  =       579.51226814
  ---------------------------------------------------
  free energy    TOTEN  =       -14.79446329 eV

  energy without entropy =      -14.79446329  energy(sigma->0) =      -14.79446329


--------------------------------------------------------------------------------------------------------




--------------------------------------- Iteration      1(  12)  ---------------------------------------


    POTLOK:  cpu time      0.1375: real time      0.1375
    SETDIJ:  cpu time      0.0756: real time      0.0756
    TRIAL :  cpu time      0.0975: real time      0.0975
    CORREC:  cpu time      0.3016: real time      0.3016
    CHARGE:  cpu time      0.0426: real time      0.0426
    --------------------------------------------
      LOOP:  cpu time      0.6683: real time      0.6685

 eigenvalue-minimisations  :     0
 total energy-change (2. order) :-0.1861330E-02  (-0.5784868E-03)
 number of electron       9.9999999 magnetization
 augmentation part        0.6563984 magnetization

 DIPCOR: dipole corrections for dipol
 direction  1 min pos     1, direction  2 min pos     1, direction  3 min pos     1,
 dipolmoment          -0.000000     -0.000000     -0.033232 electrons x Angstroem
 Tr[quadrupol]         5.351676

 energy correction for charged system         0.000000 eV
 dipol+quadrupol energy correction           -0.000003 eV
 added-field ion interaction          0.000227 eV  (added to PSCEN)


 Free energy of the ion-electron system (eV)
  ---------------------------------------------------
  alpha Z        PSCENC =         0.05193923
  Ewald energy   TEWEN  =       202.27602895
  -Hartree energ DENC   =      -682.94432620
  -exchange      EXHF   =         0.00000000
  -V(xc)+E(xc)   XCENC  =        40.43097253
  PAW double counting   =       839.94486899     -842.42317075
  entropy T*S    EENTRO =        -0.00000000
  eigenvalues    EBANDS =      -151.64490551
  atomic energy  EATOM  =       579.51226814
  ---------------------------------------------------
  free energy    TOTEN  =       -14.79632462 eV

  energy without entropy =      -14.79632462  energy(sigma->0) =      -14.79632462


--------------------------------------------------------------------------------------------------------




--------------------------------------- Iteration      1(  13)  ---------------------------------------


    POTLOK:  cpu time      0.1379: real time      0.1379
    SETDIJ:  cpu time      0.0756: real time      0.0756
    TRIAL :  cpu time      0.0969: real time      0.0969
    CORREC:  cpu time      0.3008: real time      0.3008
    CHARGE:  cpu time      0.0428: real time      0.0428
    --------------------------------------------
      LOOP:  cpu time      0.6593: real time      0.6681

 eigenvalue-minimisations  :     0
 total energy-change (2. order) :-0.5781914E-03  (-0.1459624E-03)
 number of electron       9.9999999 magnetization
 augmentation part        0.6563723 magnetization

 DIPCOR: dipole corrections for dipol
 direction  1 min pos     1, direction  2 min pos     1, direction  3 min pos     1,
 dipolmoment          -0.000000     -0.000000     -0.032131 electrons x Angstroem
 Tr[quadrupol]         5.354385

 energy correction for charged system         0.000000 eV
 dipol+quadrupol energy correction           -0.000003 eV
 added-field ion interaction          0.000219 eV  (added to PSCEN)


 Free energy of the ion-electron system (eV)
  ---------------------------------------------------
  alpha Z        PSCENC =         0.05192825
  Ewald energy   TEWEN  =       202.27602895
  -Hartree energ DENC   =      -682.85465221
  -exchange      EXHF   =         0.00000000
  -V(xc)+E(xc)   XCENC  =        40.42506165
  PAW double counting   =       839.30482481     -841.78495181
  entropy T*S    EENTRO =        -0.00000000
  eigenvalues    EBANDS =      -151.72741059
  atomic energy  EATOM  =       579.51226814
  ---------------------------------------------------
  free energy    TOTEN  =       -14.79690281 eV

  energy without entropy =      -14.79690281  energy(sigma->0) =      -14.79690281


--------------------------------------------------------------------------------------------------------




--------------------------------------- Iteration      1(  14)  ---------------------------------------


    POTLOK:  cpu time      0.1371: real time      0.1371
    SETDIJ:  cpu time      0.0755: real time      0.0755
    TRIAL :  cpu time      0.0964: real time      0.0964
    CORREC:  cpu time      0.3016: real time      0.3016
    CHARGE:  cpu time      0.0424: real time      0.0424
    --------------------------------------------
      LOOP:  cpu time      0.6583: real time      0.6672

 eigenvalue-minimisations  :     0
 total energy-change (2. order) :-0.1459564E-03  (-0.3513767E-04)
 number of electron       9.9999999 magnetization
 augmentation part        0.6563511 magnetization

 DIPCOR: dipole corrections for dipol
 direction  1 min pos     1, direction  2 min pos     1, direction  3 min pos     1,
 dipolmoment           0.000000     -0.000000     -0.031668 electrons x Angstroem
 Tr[quadrupol]         5.355300

 energy correction for charged system         0.000000 eV
 dipol+quadrupol energy correction           -0.000003 eV
 added-field ion interaction          0.000216 eV  (added to PSCEN)


 Free energy of the ion-electron system (eV)
  ---------------------------------------------------
  alpha Z        PSCENC =         0.05192234
  Ewald energy   TEWEN  =       202.27602895
  -Hartree energ DENC   =      -682.83881798
  -exchange      EXHF   =         0.00000000
  -V(xc)+E(xc)   XCENC  =        40.42374085
  PAW double counting   =       838.93131079     -841.41200169
  entropy T*S    EENTRO =        -0.00000000
  eigenvalues    EBANDS =      -151.74150018
  atomic energy  EATOM  =       579.51226814
  ---------------------------------------------------
  free energy    TOTEN  =       -14.79704877 eV

  energy without entropy =      -14.79704877  energy(sigma->0) =      -14.79704877


--------------------------------------------------------------------------------------------------------




--------------------------------------- Iteration      1(  15)  ---------------------------------------


    POTLOK:  cpu time      0.1352: real time      0.1352
    SETDIJ:  cpu time      0.0756: real time      0.0756
    TRIAL :  cpu time      0.0978: real time      0.0978
    CORREC:  cpu time      0.3061: real time      0.3061
    CHARGE:  cpu time      0.0424: real time      0.0424
    --------------------------------------------
      LOOP:  cpu time      0.6625: real time      0.6709

 eigenvalue-minimisations  :     0
 total energy-change (2. order) :-0.3514181E-04  (-0.8594588E-05)
 number of electron       9.9999999 magnetization
 augmentation part        0.6563280 magnetization

 DIPCOR: dipole corrections for dipol
 direction  1 min pos     1, direction  2 min pos     1, direction  3 min pos     1,
 dipolmoment           0.000000     -0.000000     -0.031551 electrons x Angstroem
 Tr[quadrupol]         5.355529

 energy correction for charged system         0.000000 eV
 dipol+quadrupol energy correction           -0.000003 eV
 added-field ion interaction          0.000215 eV  (added to PSCEN)


 Free energy of the ion-electron system (eV)
  ---------------------------------------------------
  alpha Z        PSCENC =         0.05192013
  Ewald energy   TEWEN  =       202.27602895
  -Hartree energ DENC   =      -682.83968732
  -exchange      EXHF   =         0.00000000
  -V(xc)+E(xc)   XCENC  =        40.42362625
  PAW double counting   =       838.72458448     -841.20537576
  entropy T*S    EENTRO =        -0.00000000
  eigenvalues    EBANDS =      -151.74044878
  atomic energy  EATOM  =       579.51226814
  ---------------------------------------------------
  free energy    TOTEN  =       -14.79708391 eV

  energy without entropy =      -14.79708391  energy(sigma->0) =      -14.79708391


--------------------------------------------------------------------------------------------------------




--------------------------------------- Iteration      1(  16)  ---------------------------------------


    POTLOK:  cpu time      0.1376: real time      0.1376
    SETDIJ:  cpu time      0.0759: real time      0.0759
    TRIAL :  cpu time      0.0970: real time      0.0970
    CORREC:  cpu time      0.3004: real time      0.3005
    CHARGE:  cpu time      0.0430: real time      0.0430
    --------------------------------------------
      LOOP:  cpu time      0.6588: real time      0.6681

 eigenvalue-minimisations  :     0
 total energy-change (2. order) :-0.8611648E-05  (-0.2462442E-05)
 number of electron       9.9999999 magnetization
 augmentation part        0.6563327 magnetization

 DIPCOR: dipole corrections for dipol
 direction  1 min pos     1, direction  2 min pos     1, direction  3 min pos     1,
 dipolmoment           0.000000      0.000000     -0.031542 electrons x Angstroem
 Tr[quadrupol]         5.355391

 energy correction for charged system         0.000000 eV
 dipol+quadrupol energy correction           -0.000003 eV
 added-field ion interaction          0.000215 eV  (added to PSCEN)


 Free energy of the ion-electron system (eV)
  ---------------------------------------------------
  alpha Z        PSCENC =         0.05191996
  Ewald energy   TEWEN  =       202.27602895
  -Hartree energ DENC   =      -682.83765449
  -exchange      EXHF   =         0.00000000
  -V(xc)+E(xc)   XCENC  =        40.42346172
  PAW double counting   =       838.62092190     -841.10170001
  entropy T*S    EENTRO =        -0.00000000
  eigenvalues    EBANDS =      -151.74233869
  atomic energy  EATOM  =       579.51226814
  ---------------------------------------------------
  free energy    TOTEN  =       -14.79709252 eV

  energy without entropy =      -14.79709252  energy(sigma->0) =      -14.79709252


--------------------------------------------------------------------------------------------------------




--------------------------------------- Iteration      1(  17)  ---------------------------------------


    POTLOK:  cpu time      0.1365: real time      0.1365
    SETDIJ:  cpu time      0.0755: real time      0.0755
    TRIAL :  cpu time      0.0967: real time      0.0967
    CORREC:  cpu time      0.3026: real time      0.3026
    CHARGE:  cpu time      0.0428: real time      0.0428
    --------------------------------------------
      LOOP:  cpu time      0.6587: real time      0.6680

 eigenvalue-minimisations  :     0
 total energy-change (2. order) :-0.2476852E-05  (-0.7441907E-06)
 number of electron       9.9999999 magnetization
 augmentation part        0.6563423 magnetization

 DIPCOR: dipole corrections for dipol
 direction  1 min pos     1, direction  2 min pos     1, direction  3 min pos     1,
 dipolmoment          -0.000000      0.000000     -0.031539 electrons x Angstroem
 Tr[quadrupol]         5.355219

 energy correction for charged system         0.000000 eV
 dipol+quadrupol energy correction           -0.000003 eV
 added-field ion interaction          0.000215 eV  (added to PSCEN)


 Free energy of the ion-electron system (eV)
  ---------------------------------------------------
  alpha Z        PSCENC =         0.05191995
  Ewald energy   TEWEN  =       202.27602895
  -Hartree energ DENC   =      -682.84207828
  -exchange      EXHF   =         0.00000000
  -V(xc)+E(xc)   XCENC  =        40.42368931
  PAW double counting   =       838.58200283     -841.06283170
  entropy T*S    EENTRO =        -0.00000000
  eigenvalues    EBANDS =      -151.73809420
  atomic energy  EATOM  =       579.51226814
  ---------------------------------------------------
  free energy    TOTEN  =       -14.79709500 eV

  energy without entropy =      -14.79709500  energy(sigma->0) =      -14.79709500


--------------------------------------------------------------------------------------------------------




--------------------------------------- Iteration      1(  18)  ---------------------------------------


    POTLOK:  cpu time      0.1369: real time      0.1369
    SETDIJ:  cpu time      0.0755: real time      0.0755
    TRIAL :  cpu time      0.0976: real time      0.0976
    CORREC:  cpu time      0.3038: real time      0.3038
    CHARGE:  cpu time      0.0428: real time      0.0428
    --------------------------------------------
      LOOP:  cpu time      0.6613: real time      0.6704

 eigenvalue-minimisations  :     0
 total energy-change (2. order) :-0.7579876E-06  (-0.2245987E-06)
 number of electron       9.9999999 magnetization
 augmentation part        0.6563489 magnetization

 DIPCOR: dipole corrections for dipol
 direction  1 min pos     1, direction  2 min pos     1, direction  3 min pos     1,
 dipolmoment           0.000000      0.000000     -0.031536 electrons x Angstroem
 Tr[quadrupol]         5.355116

 energy correction for charged system         0.000000 eV
 dipol+quadrupol energy correction           -0.000003 eV
 added-field ion interaction          0.000215 eV  (added to PSCEN)


 Free energy of the ion-electron system (eV)
  ---------------------------------------------------
  alpha Z        PSCENC =         0.05191992
  Ewald energy   TEWEN  =       202.27602895
  -Hartree energ DENC   =      -682.84401414
  -exchange      EXHF   =         0.00000000
  -V(xc)+E(xc)   XCENC  =        40.42380428
  PAW double counting   =       838.57356297     -841.05444950
  entropy T*S    EENTRO =        -0.00000000
  eigenvalues    EBANDS =      -151.73621638
  atomic energy  EATOM  =       579.51226814
  ---------------------------------------------------
  free energy    TOTEN  =       -14.79709576 eV

  energy without entropy =      -14.79709576  energy(sigma->0) =      -14.79709576


--------------------------------------------------------------------------------------------------------




--------------------------------------- Iteration      1(  19)  ---------------------------------------


    POTLOK:  cpu time      0.1393: real time      0.1393
    SETDIJ:  cpu time      0.0756: real time      0.0756
    TRIAL :  cpu time      0.0971: real time      0.0971
    CORREC:  cpu time      0.3037: real time      0.3041
    CHARGE:  cpu time      0.0427: real time      0.0428
    --------------------------------------------
      LOOP:  cpu time      0.6721: real time      0.6726

 eigenvalue-minimisations  :     0
 total energy-change (2. order) :-0.2298958E-06  (-0.7073311E-07)
 number of electron       9.9999999 magnetization
 augmentation part        0.6563541 magnetization

 DIPCOR: dipole corrections for dipol
 direction  1 min pos     1, direction  2 min pos     1, direction  3 min pos     1,
 dipolmoment           0.000000      0.000000     -0.031535 electrons x Angstroem
 Tr[quadrupol]         5.355046

 energy correction for charged system         0.000000 eV
 dipol+quadrupol energy correction           -0.000003 eV
 added-field ion interaction          0.000215 eV  (added to PSCEN)


 Free energy of the ion-electron system (eV)
  ---------------------------------------------------
  alpha Z        PSCENC =         0.05191991
  Ewald energy   TEWEN  =       202.27602895
  -Hartree energ DENC   =      -682.84468431
  -exchange      EXHF   =         0.00000000
  -V(xc)+E(xc)   XCENC  =        40.42385353
  PAW double counting   =       838.57888700     -841.05981310
  entropy T*S    EENTRO =        -0.00000000
  eigenvalues    EBANDS =      -151.73555612
  atomic energy  EATOM  =       579.51226814
  ---------------------------------------------------
  free energy    TOTEN  =       -14.79709599 eV

  energy without entropy =      -14.79709599  energy(sigma->0) =      -14.79709599


--------------------------------------------------------------------------------------------------------




--------------------------------------- Iteration      1(  20)  ---------------------------------------


    POTLOK:  cpu time      0.1367: real time      0.1367
    SETDIJ:  cpu time      0.0756: real time      0.0756
    TRIAL :  cpu time      0.0978: real time      0.0979
    CORREC:  cpu time      0.2997: real time      0.2997
    CHARGE:  cpu time      0.0428: real time      0.0428
    --------------------------------------------
      LOOP:  cpu time      0.6576: real time      0.6667

 eigenvalue-minimisations  :     0
 total energy-change (2. order) :-0.7196587E-07  (-0.1973001E-07)
 number of electron       9.9999999 magnetization
 augmentation part        0.6563567 magnetization

 DIPCOR: dipole corrections for dipol
 direction  1 min pos     1, direction  2 min pos     1, direction  3 min pos     1,
 dipolmoment          -0.000000      0.000000     -0.031533 electrons x Angstroem
 Tr[quadrupol]         5.355007

 energy correction for charged system         0.000000 eV
 dipol+quadrupol energy correction           -0.000003 eV
 added-field ion interaction          0.000215 eV  (added to PSCEN)


 Free energy of the ion-electron system (eV)
  ---------------------------------------------------
  alpha Z        PSCENC =         0.05191990
  Ewald energy   TEWEN  =       202.27602895
  -Hartree energ DENC   =      -682.84556911
  -exchange      EXHF   =         0.00000000
  -V(xc)+E(xc)   XCENC  =        40.42390902
  PAW double counting   =       838.58810580     -841.06906024
  entropy T*S    EENTRO =        -0.00000000
  eigenvalues    EBANDS =      -151.73469852
  atomic energy  EATOM  =       579.51226814
  ---------------------------------------------------
  free energy    TOTEN  =       -14.79709606 eV

  energy without entropy =      -14.79709606  energy(sigma->0) =      -14.79709606


--------------------------------------------------------------------------------------------------------




--------------------------------------- Iteration      1(  21)  ---------------------------------------


    POTLOK:  cpu time      0.1361: real time      0.1361
    SETDIJ:  cpu time      0.0755: real time      0.0755
    TRIAL :  cpu time      0.0971: real time      0.0971
    CORREC:  cpu time      0.3006: real time      0.3006
    CHARGE:  cpu time      0.0424: real time      0.0424
    --------------------------------------------
      LOOP:  cpu time      0.6652: real time      0.6654

 eigenvalue-minimisations  :     0
 total energy-change (2. order) :-0.1974570E-07  (-0.5192463E-08)
 number of electron       9.9999999 magnetization
 augmentation part        0.6563579 magnetization

 DIPCOR: dipole corrections for dipol
 direction  1 min pos     1, direction  2 min pos     1, direction  3 min pos     1,
 dipolmoment          -0.000000      0.000000     -0.031532 electrons x Angstroem
 Tr[quadrupol]         5.354993

 energy correction for charged system         0.000000 eV
 dipol+quadrupol energy correction           -0.000003 eV
 added-field ion interaction          0.000215 eV  (added to PSCEN)


 Free energy of the ion-electron system (eV)
  ---------------------------------------------------
  alpha Z        PSCENC =         0.05191989
  Ewald energy   TEWEN  =       202.27602895
  -Hartree energ DENC   =      -682.84591737
  -exchange      EXHF   =         0.00000000
  -V(xc)+E(xc)   XCENC  =        40.42393078
  PAW double counting   =       838.59484236     -841.07581110
  entropy T*S    EENTRO =        -0.00000000
  eigenvalues    EBANDS =      -151.73435774
  atomic energy  EATOM  =       579.51226814
  ---------------------------------------------------
  free energy    TOTEN  =       -14.79709608 eV

  energy without entropy =      -14.79709608  energy(sigma->0) =      -14.79709608


--------------------------------------------------------------------------------------------------------




--------------------------------------- Iteration      1(  22)  ---------------------------------------


    POTLOK:  cpu time      0.1370: real time      0.1370
    SETDIJ:  cpu time      0.0758: real time      0.0758
    TRIAL :  cpu time      0.0963: real time      0.0964
    CORREC:  cpu time      0.3040: real time      0.3040
    EDDIAG:  cpu time      0.0538: real time      0.0539
    CHARGE:  cpu time      0.0433: real time      0.0433
    --------------------------------------------
      LOOP:  cpu time      0.7158: real time      0.7243

 eigenvalue-minimisations  :     0
 total energy-change (2. order) :-0.4807703E-08  (-0.1427826E-08)
 number of electron       9.9999999 magnetization
 augmentation part        0.6563585 magnetization

 DIPCOR: dipole corrections for dipol
 direction  1 min pos     1, direction  2 min pos     1, direction  3 min pos     1,
 dipolmoment          -0.000000      0.000000     -0.031531 electrons x Angstroem
 Tr[quadrupol]         5.354990

 energy correction for charged system         0.000000 eV
 dipol+quadrupol energy correction           -0.000003 eV
 added-field ion interaction          0.000215 eV  (added to PSCEN)


 Free energy of the ion-electron system (eV)
  ---------------------------------------------------
  alpha Z        PSCENC =         0.05191989
  Ewald energy   TEWEN  =       202.27602895
  -Hartree energ DENC   =      -682.84596394
  -exchange      EXHF   =         0.00000000
  -V(xc)+E(xc)   XCENC  =        40.42393431
  PAW double counting   =       838.59851161     -841.07948621
  entropy T*S    EENTRO =        -0.00000000
  eigenvalues    EBANDS =      -151.73430884
  atomic energy  EATOM  =       579.51226814
  ---------------------------------------------------
  free energy    TOTEN  =       -14.79709608 eV

  energy without entropy =      -14.79709608  energy(sigma->0) =      -14.79709608


--------------------------------------------------------------------------------------------------------


  average scaling for gradient   1.7729


 average (electrostatic) potential at core
  the test charge radii are     0.6991  0.7215
  (the norm of the test charge is              1.0000)
       1 -61.7140       2 -83.5121



 E-fermi :  -8.7727     XC(G=0):  -0.0851     alpha+bet : -0.0207

 Fermi energy:        -8.7727311525

 k-point     1 :       0.0000    0.0000    0.0000
  band No.  band energies     occupation
      1     -29.2611      2.00000
      2     -14.0555      2.00000
      3     -11.7430      2.00000
      4     -11.7430      2.00000
      5      -9.0645      2.00000
      6      -2.1502      0.00000
      7      -2.1502      0.00000
      8      -0.1046      0.00000
      9       0.1584      0.00000
     10       0.2946      0.00000
     11       0.3378      0.00000
     12       0.3378      0.00000
     13       0.3565      0.00000
     14       0.3775      0.00000
     15       0.5682      0.00000
     16       0.6176      0.00000
     17       0.6294      0.00000
     18       0.6294      0.00000
     19       0.7079      0.00000
     20       0.7079      0.00000
     21       0.7110      0.00000
     22       0.7183      0.00000
     23       0.7413      0.00000
     24       0.7417      0.00000
     25       0.7417      0.00000
     26       0.7436      0.00000
     27       0.9985      0.00000
     28       1.0263      0.00000
     29       1.0263      0.00000
     30       1.0479      0.00000
     31       1.0695      0.00000
     32       1.0776      0.00000
     33       1.0776      0.00000
     34       1.0906      0.00000
     35       1.2744      0.00000
     36       1.3070      0.00000
     37       1.4226      0.00000
     38       1.4226      0.00000
     39       1.4536      0.00000
     40       1.4827      0.00000
     41       1.5416      0.00000
     42       1.6276      0.00000
     43       1.6551      0.00000
     44       1.6551      0.00000
     45       1.6998      0.00000
     46       1.6998      0.00000
     47       1.7168      0.00000
     48       1.7264      0.00000
     49       1.7475      0.00000
     50       1.7475      0.00000
     51       1.7670      0.00000
     52       1.7934      0.00000
     53       1.8118      0.00000
     54       1.8228      0.00000
     55       1.8249      0.00000
     56       1.8249      0.00000
     57       1.8353      0.00000
     58       1.8577      0.00000
     59       1.8578      0.00000
     60       1.8656      0.00000
     61       1.8759      0.00000
     62       1.8802      0.00000
     63       1.8802      0.00000
     64       1.8834      0.00000


--------------------------------------------------------------------------------------------------------


 soft charge-density along one line, spin component           1
         0         1         2         3         4         5         6         7         8         9
 total charge-density along one line

 pseudopotential strength for first ion, spin component:           1
 10.418  13.860   0.000   0.033   0.000  -0.000  -0.100  -0.000
 13.860  18.437   0.000   0.044   0.000  -0.000  -0.132  -0.000
  0.000   0.000  -4.535  -0.000  -0.000   8.883   0.000   0.000
  0.033   0.044  -0.000  -4.573   0.000   0.000   8.939  -0.000
  0.000   0.000  -0.000   0.000  -4.535   0.000  -0.000   8.883
 -0.000  -0.000   8.883   0.000   0.000 -19.548   0.000  -0.000
 -0.100  -0.132   0.000   8.939  -0.000   0.000 -19.620  -0.000
 -0.000  -0.000   0.000  -0.000   8.883  -0.000  -0.000 -19.548
 total augmentation occupancy for first ion, spin component:           1
  7.251  -3.286   0.000   2.112   0.000   0.000   0.383   0.000
 -3.286   1.892  -0.000  -1.611  -0.000  -0.000  -0.231  -0.000
  0.000  -0.000   0.820  -0.000  -0.000   0.060  -0.000  -0.000
  2.112  -1.611  -0.000   2.224   0.000  -0.000   0.207   0.000
  0.000  -0.000  -0.000   0.000   0.820  -0.000   0.000   0.060
  0.000  -0.000   0.060  -0.000  -0.000   0.004  -0.000  -0.000
  0.383  -0.231  -0.000   0.207   0.000  -0.000   0.028   0.000
  0.000  -0.000  -0.000   0.000   0.060  -0.000   0.000   0.004


------------------------ aborting loop because EDIFF is reached ----------------------------------------


    FORLOC:  cpu time      0.0030: real time      0.0030
    FORNL :  cpu time      0.0023: real time      0.0023
    STRESS:  cpu time      0.0648: real time      0.0650
    FORCOR:  cpu time      0.1032: real time      0.1032
    OFIELD:  cpu time      0.0004: real time      0.0004

  DFT-D2 method for vdW energy calculation
  -------------------------------------------------------------------

  Parameters of vdW forcefield:
         C6(Jnm^6/mol)     R0(A)
   -----------------------------
   C        1.750          1.452
   O        0.700          1.342

  vdW correction parametrized for the method pbe

  IVDW =   1
  VDW_RADIUS =    50.000 A
  VDW_S6 =     0.750
  VDW_SR =     1.000
  VDW_D =    20.000
  LVDW_EWALD = F

  Number of pair interactions contributing to vdW energy:     221
  Edisp (eV):   -0.00003
    FORVDW:  cpu time      0.0003: real time      0.0003

  FORCE on cell =-STRESS in cart. coord.  units (eV):
  Direction    XX          YY          ZZ          XY          YZ          ZX
  --------------------------------------------------------------------------------------
  Alpha Z     0.05171     0.05171     0.05171
  Ewald     -31.59395   -31.59395   265.46396    -0.00000    -0.00000    -0.00000
  Hartree   193.78398   193.78398   295.27801    -0.00000    -0.00000     0.00000
  E(xc)     -44.00015   -44.00015   -42.89339    -0.00000    -0.00000     0.00000
  Local    -296.99947  -296.99947  -669.17627    -0.00000    -0.00000     0.00000
  n-local   -18.24133   -18.24133   -29.68505     0.00000    -0.00000     0.00000
  augment     6.23852     6.23852     5.74726    -0.00000     0.00000    -0.00000
  Kinetic   190.69961   190.69961   175.14308     0.00000     0.00000    -0.00000
  Fock        0.00000     0.00000     0.00000     0.00000     0.00000     0.00000
  vdW        -0.00000    -0.00000     0.00006     0.00000    -0.00000     0.00000
  -------------------------------------------------------------------------------------
  Total      -0.06109    -0.06109    -0.07064     0.00000    -0.00000     0.00000
  in kB      -0.01158    -0.01158    -0.01339     0.00000    -0.00000     0.00000
  external pressure =       -0.01 kB  Pullay stress =        0.00 kB


 VOLUME and BASIS-vectors are now :
 -----------------------------------------------------------------------------
  energy-cutoff  :      600.00
  volume of cell :     8450.53
      direct lattice vectors                 reciprocal lattice vectors
    20.000000000  0.000000000  0.000000000     0.050000000  0.000000000  0.000000000
     0.000000000 20.000000000  0.000000000     0.000000000  0.050000000  0.000000000
     0.000000000  0.000000000 21.126328287     0.000000000  0.000000000  0.047334302

  length of vectors
    20.000000000 20.000000000 21.126328287     0.050000000  0.050000000  0.047334302


 FORCES acting on ions:
    Electron-Ion                     Ewald-Force                    Non-Local-Force
 -----------------------------------------------------------------------------------------------
   -.457E-08 0.613E-08 0.236E+03   -.657E-17 0.632E-17 -.264E+03   0.702E-08 0.336E-09 0.281E+02
   0.952E-08 -.261E-07 -.205E+03   -.884E-17 -.202E-16 0.264E+03   -.117E-07 0.174E-07 -.594E+02
 -----------------------------------------------------------------------------------------------
   0.488E-08 -.201E-07 0.313E+02   -.154E-16 -.138E-16 0.000E+00   -.466E-08 0.177E-07 -.313E+02


 POSITION                                       TOTAL-FORCE (eV/Angst)
 -----------------------------------------------------------------------------------
     10.00000     10.00000      9.99169         0.000000      0.000000     -0.000427
     10.00000     10.00000     11.13464        -0.000000     -0.000000      0.000427
 -----------------------------------------------------------------------------------
    total drift:                                0.000000     -0.000000      0.000916


--------------------------------------------------------------------------------------------------------



  FREE ENERGIE OF THE ION-ELECTRON SYSTEM (eV)
  ---------------------------------------------------
  free  energy   TOTEN  =       -14.79712661 eV

  energy  without entropy=      -14.79712661  energy(sigma->0) =      -14.79712661



--------------------------------------------------------------------------------------------------------


    POTLOK:  cpu time      0.2135: real time      0.2135


--------------------------------------------------------------------------------------------------------


 Finite differences:
   Step               POTIM =    1.0000000000000000E-002
   Degrees of freedom DOF   =            6
    WAVPRE:  cpu time      0.0143: real time      0.0544
    FEWALD:  cpu time      0.0003: real time      0.0003
    ORTHCH:  cpu time      0.0057: real time      0.0057
    POTLOK:  cpu time      0.2107: real time      0.2107
    EDDIAG:  cpu time      0.0561: real time      0.0561
    CHARGE:  cpu time      0.0431: real time      0.0431
     LOOP+:  cpu time     19.9068: real time     20.1149


--------------------------------------- Iteration      2(   1)  ---------------------------------------


    POTLOK:  cpu time      0.1370: real time      0.1370
    SETDIJ:  cpu time      0.0756: real time      0.0756
    TRIAL :  cpu time      0.0967: real time      0.0967
    CORREC:  cpu time      0.3029: real time      0.3029
    CHARGE:  cpu time      0.0433: real time      0.0433
    --------------------------------------------
      LOOP:  cpu time      0.6563: real time      0.6563

 eigenvalue-minimisations  :     0
 total energy-change (2. order) : 0.1733952E-01  (-0.1386239E-01)
 number of electron       9.9999999 magnetization
 augmentation part        0.6559744 magnetization

 DIPCOR: dipole corrections for dipol
 direction  1 min pos     1, direction  2 min pos     1, direction  3 min pos     1,
 dipolmoment           0.000349     -0.000000     -0.030482 electrons x Angstroem
 Tr[quadrupol]         5.356532

 energy correction for charged system         0.000000 eV
 dipol+quadrupol energy correction           -0.000003 eV
 added-field ion interaction          0.000208 eV  (added to PSCEN)


 Free energy of the ion-electron system (eV)
  ---------------------------------------------------
  alpha Z        PSCENC =         0.05191078
  Ewald energy   TEWEN  =       202.26446535
  -Hartree energ DENC   =      -682.90431945
  -exchange      EXHF   =         0.00000000
  -V(xc)+E(xc)   XCENC  =        40.42669294
  PAW double counting   =       844.69055688     -847.17201265
  entropy T*S    EENTRO =        -0.00000000
  eigenvalues    EBANDS =      -151.64931855
  atomic energy  EATOM  =       579.51226814
  ---------------------------------------------------
  free energy    TOTEN  =       -14.77975656 eV

  energy without entropy =      -14.77975656  energy(sigma->0) =      -14.77975656


--------------------------------------------------------------------------------------------------------




--------------------------------------- Iteration      2(   2)  ---------------------------------------


    POTLOK:  cpu time      0.1362: real time      0.1363
    SETDIJ:  cpu time      0.0755: real time      0.0755
    TRIAL :  cpu time      0.0969: real time      0.0969
    CORREC:  cpu time      0.3028: real time      0.3029
    CHARGE:  cpu time      0.0429: real time      0.0429
    --------------------------------------------
      LOOP:  cpu time      0.6589: real time      0.6682

 eigenvalue-minimisations  :     0
 total energy-change (2. order) :-0.1385670E-01  (-0.2564089E-02)
 number of electron       9.9999999 magnetization
 augmentation part        0.6563288 magnetization

 DIPCOR: dipole corrections for dipol
 direction  1 min pos     1, direction  2 min pos     1, direction  3 min pos     1,
 dipolmoment           0.006528      0.000000     -0.031340 electrons x Angstroem
 Tr[quadrupol]         5.353268

 energy correction for charged system         0.000000 eV
 dipol+quadrupol energy correction           -0.000003 eV
 added-field ion interaction          0.000212 eV  (added to PSCEN)


 Free energy of the ion-electron system (eV)
  ---------------------------------------------------
  alpha Z        PSCENC =         0.05191310
  Ewald energy   TEWEN  =       202.26446535
  -Hartree energ DENC   =      -682.70468840
  -exchange      EXHF   =         0.00000000
  -V(xc)+E(xc)   XCENC  =        40.41628272
  PAW double counting   =       838.70847476     -841.18845575
  entropy T*S    EENTRO =        -0.00000000
  eigenvalues    EBANDS =      -151.85387317
  atomic energy  EATOM  =       579.51226814
  ---------------------------------------------------
  free energy    TOTEN  =       -14.79361326 eV

  energy without entropy =      -14.79361326  energy(sigma->0) =      -14.79361326


--------------------------------------------------------------------------------------------------------




--------------------------------------- Iteration      2(   3)  ---------------------------------------


    POTLOK:  cpu time      0.1362: real time      0.1362
    SETDIJ:  cpu time      0.0755: real time      0.0755
    TRIAL :  cpu time      0.0966: real time      0.0966
    CORREC:  cpu time      0.3016: real time      0.3016
    CHARGE:  cpu time      0.0428: real time      0.0428
    --------------------------------------------
      LOOP:  cpu time      0.6586: real time      0.6672

 eigenvalue-minimisations  :     0
 total energy-change (2. order) :-0.2563722E-02  (-0.6742078E-03)
 number of electron       9.9999999 magnetization
 augmentation part        0.6563532 magnetization

 DIPCOR: dipole corrections for dipol
 direction  1 min pos     1, direction  2 min pos     1, direction  3 min pos     1,
 dipolmoment           0.001317      0.000000     -0.031553 electrons x Angstroem
 Tr[quadrupol]         5.355165

 energy correction for charged system         0.000000 eV
 dipol+quadrupol energy correction           -0.000003 eV
 added-field ion interaction          0.000215 eV  (added to PSCEN)


 Free energy of the ion-electron system (eV)
  ---------------------------------------------------
  alpha Z        PSCENC =         0.05191568
  Ewald energy   TEWEN  =       202.26446535
  -Hartree energ DENC   =      -682.88792575
  -exchange      EXHF   =         0.00000000
  -V(xc)+E(xc)   XCENC  =        40.42635262
  PAW double counting   =       838.53882686     -841.01948223
  entropy T*S    EENTRO =        -0.00000000
  eigenvalues    EBANDS =      -151.68259766
  atomic energy  EATOM  =       579.51226814
  ---------------------------------------------------
  free energy    TOTEN  =       -14.79617698 eV

  energy without entropy =      -14.79617698  energy(sigma->0) =      -14.79617698


--------------------------------------------------------------------------------------------------------




--------------------------------------- Iteration      2(   4)  ---------------------------------------


    POTLOK:  cpu time      0.1378: real time      0.1378
    SETDIJ:  cpu time      0.0755: real time      0.0755
    TRIAL :  cpu time      0.0964: real time      0.0964
    CORREC:  cpu time      0.3005: real time      0.3005
    CHARGE:  cpu time      0.0426: real time      0.0426
    --------------------------------------------
      LOOP:  cpu time      0.6572: real time      0.6667

 eigenvalue-minimisations  :     0
 total energy-change (2. order) :-0.6741790E-03  (-0.1713486E-03)
 number of electron       9.9999999 magnetization
 augmentation part        0.6562821 magnetization

 DIPCOR: dipole corrections for dipol
 direction  1 min pos     1, direction  2 min pos     1, direction  3 min pos     1,
 dipolmoment           0.001585     -0.000000     -0.031522 electrons x Angstroem
 Tr[quadrupol]         5.355556

 energy correction for charged system         0.000000 eV
 dipol+quadrupol energy correction           -0.000003 eV
 added-field ion interaction          0.000215 eV  (added to PSCEN)


 Free energy of the ion-electron system (eV)
  ---------------------------------------------------
  alpha Z        PSCENC =         0.05191854
  Ewald energy   TEWEN  =       202.26446535
  -Hartree energ DENC   =      -682.85295021
  -exchange      EXHF   =         0.00000000
  -V(xc)+E(xc)   XCENC  =        40.42446933
  PAW double counting   =       838.52232137     -841.00326138
  entropy T*S    EENTRO =        -0.00000000
  eigenvalues    EBANDS =      -151.71608231
  atomic energy  EATOM  =       579.51226814
  ---------------------------------------------------
  free energy    TOTEN  =       -14.79685116 eV

  energy without entropy =      -14.79685116  energy(sigma->0) =      -14.79685116


--------------------------------------------------------------------------------------------------------




--------------------------------------- Iteration      2(   5)  ---------------------------------------


    POTLOK:  cpu time      0.1373: real time      0.1374
    SETDIJ:  cpu time      0.0758: real time      0.0758
    TRIAL :  cpu time      0.0968: real time      0.0968
    CORREC:  cpu time      0.3021: real time      0.3021
    CHARGE:  cpu time      0.0427: real time      0.0427
    --------------------------------------------
      LOOP:  cpu time      0.6608: real time      0.6685

 eigenvalue-minimisations  :     0
 total energy-change (2. order) :-0.1713489E-03  (-0.5165391E-04)
 number of electron       9.9999999 magnetization
 augmentation part        0.6563405 magnetization

 DIPCOR: dipole corrections for dipol
 direction  1 min pos     1, direction  2 min pos     1, direction  3 min pos     1,
 dipolmoment           0.000958     -0.000000     -0.031458 electrons x Angstroem
 Tr[quadrupol]         5.354999

 energy correction for charged system         0.000000 eV
 dipol+quadrupol energy correction           -0.000003 eV
 added-field ion interaction          0.000214 eV  (added to PSCEN)


 Free energy of the ion-electron system (eV)
  ---------------------------------------------------
  alpha Z        PSCENC =         0.05191933
  Ewald energy   TEWEN  =       202.26446535
[...]


    POTLOK:  cpu time      0.1377: real time      0.1377
    SETDIJ:  cpu time      0.0753: real time      0.0755
    TRIAL :  cpu time      0.0962: real time      0.0963
    CORREC:  cpu time      0.3044: real time      0.3044
    CHARGE:  cpu time      0.0432: real time      0.0432
    --------------------------------------------
      LOOP:  cpu time      0.6708: real time      0.6712

 eigenvalue-minimisations  :     0
 total energy-change (2. order) :-0.5198327E-06  (-0.1159131E-06)
 number of electron       9.9999998 magnetization
 augmentation part        0.6617321 magnetization

 DIPCOR: dipole corrections for dipol
 direction  1 min pos     1, direction  2 min pos     1, direction  3 min pos     1,
 dipolmoment          -0.000000      0.000000     -0.038159 electrons x Angstroem
 Tr[quadrupol]         5.345564

 energy correction for charged system         0.000000 eV
 dipol+quadrupol energy correction           -0.000004 eV
 added-field ion interaction          0.000247 eV  (added to PSCEN)


 Free energy of the ion-electron system (eV)
  ---------------------------------------------------
  alpha Z        PSCENC =         0.05195009
  Ewald energy   TEWEN  =       204.94328781
  -Hartree energ DENC   =      -684.98776526
  -exchange      EXHF   =         0.00000000
  -V(xc)+E(xc)   XCENC  =        40.50185445
  PAW double counting   =       855.58682129     -858.08235280
  entropy T*S    EENTRO =        -0.00000000
  eigenvalues    EBANDS =      -152.31733233
  atomic energy  EATOM  =       579.51226814
  ---------------------------------------------------
  free energy    TOTEN  =       -14.79126861 eV

  energy without entropy =      -14.79126861  energy(sigma->0) =      -14.79126861


--------------------------------------------------------------------------------------------------------




--------------------------------------- Iteration     13(  13)  ---------------------------------------


    POTLOK:  cpu time      0.1364: real time      0.1364
    SETDIJ:  cpu time      0.0757: real time      0.0757
    TRIAL :  cpu time      0.0960: real time      0.0960
    CORREC:  cpu time      0.3022: real time      0.3024
    CHARGE:  cpu time      0.0433: real time      0.0433
    --------------------------------------------
      LOOP:  cpu time      0.6603: real time      0.6676

 eigenvalue-minimisations  :     0
 total energy-change (2. order) :-0.1160591E-06  (-0.2321438E-07)
 number of electron       9.9999998 magnetization
 augmentation part        0.6617320 magnetization

 DIPCOR: dipole corrections for dipol
 direction  1 min pos     1, direction  2 min pos     1, direction  3 min pos     1,
 dipolmoment          -0.000000      0.000000     -0.038157 electrons x Angstroem
 Tr[quadrupol]         5.345593

 energy correction for charged system         0.000000 eV
 dipol+quadrupol energy correction           -0.000004 eV
 added-field ion interaction          0.000247 eV  (added to PSCEN)


 Free energy of the ion-electron system (eV)
  ---------------------------------------------------
  alpha Z        PSCENC =         0.05195005
  Ewald energy   TEWEN  =       204.94328781
  -Hartree energ DENC   =      -684.98838628
  -exchange      EXHF   =         0.00000000
  -V(xc)+E(xc)   XCENC  =        40.50189124
  PAW double counting   =       855.57400371     -858.06956124
  entropy T*S    EENTRO =        -0.00000000
  eigenvalues    EBANDS =      -152.31672216
  atomic energy  EATOM  =       579.51226814
  ---------------------------------------------------
  free energy    TOTEN  =       -14.79126873 eV

  energy without entropy =      -14.79126873  energy(sigma->0) =      -14.79126873


--------------------------------------------------------------------------------------------------------




--------------------------------------- Iteration     13(  14)  ---------------------------------------


    POTLOK:  cpu time      0.1361: real time      0.1361
    SETDIJ:  cpu time      0.0755: real time      0.0756
    TRIAL :  cpu time      0.0967: real time      0.0967
    CORREC:  cpu time      0.3041: real time      0.3041
    CHARGE:  cpu time      0.0429: real time      0.0429
    --------------------------------------------
      LOOP:  cpu time      0.6693: real time      0.6695

 eigenvalue-minimisations  :     0
 total energy-change (2. order) :-0.2252330E-07  (-0.9483949E-08)
 number of electron       9.9999998 magnetization
 augmentation part        0.6617320 magnetization

 DIPCOR: dipole corrections for dipol
 direction  1 min pos     1, direction  2 min pos     1, direction  3 min pos     1,
 dipolmoment           0.000000      0.000000     -0.038158 electrons x Angstroem
 Tr[quadrupol]         5.345596

 energy correction for charged system         0.000000 eV
 dipol+quadrupol energy correction           -0.000004 eV
 added-field ion interaction          0.000247 eV  (added to PSCEN)


 Free energy of the ion-electron system (eV)
  ---------------------------------------------------
  alpha Z        PSCENC =         0.05195005
  Ewald energy   TEWEN  =       204.94328781
  -Hartree energ DENC   =      -684.98765175
  -exchange      EXHF   =         0.00000000
  -V(xc)+E(xc)   XCENC  =        40.50185141
  PAW double counting   =       855.56660397     -858.06216654
  entropy T*S    EENTRO =        -0.00000000
  eigenvalues    EBANDS =      -152.31741184
  atomic energy  EATOM  =       579.51226814
  ---------------------------------------------------
  free energy    TOTEN  =       -14.79126875 eV

  energy without entropy =      -14.79126875  energy(sigma->0) =      -14.79126875


--------------------------------------------------------------------------------------------------------




--------------------------------------- Iteration     13(  15)  ---------------------------------------


    POTLOK:  cpu time      0.1366: real time      0.1366
    SETDIJ:  cpu time      0.0754: real time      0.0756
    TRIAL :  cpu time      0.0966: real time      0.0966
    CORREC:  cpu time      0.3042: real time      0.3043
    EDDIAG:  cpu time      0.0528: real time      0.0528
    CHARGE:  cpu time      0.0438: real time      0.0438
    --------------------------------------------
      LOOP:  cpu time      0.7142: real time      0.7234

 eigenvalue-minimisations  :     0
 total energy-change (2. order) :-0.8987683E-08  (-0.8733099E-08)
 number of electron       9.9999998 magnetization
 augmentation part        0.6617308 magnetization

 DIPCOR: dipole corrections for dipol
 direction  1 min pos     1, direction  2 min pos     1, direction  3 min pos     1,
 dipolmoment          -0.000000      0.000000     -0.038159 electrons x Angstroem
 Tr[quadrupol]         5.345598

 energy correction for charged system         0.000000 eV
 dipol+quadrupol energy correction           -0.000004 eV
 added-field ion interaction          0.000247 eV  (added to PSCEN)


 Free energy of the ion-electron system (eV)
  ---------------------------------------------------
  alpha Z        PSCENC =         0.05195006
  Ewald energy   TEWEN  =       204.94328781
  -Hartree energ DENC   =      -684.98761812
  -exchange      EXHF   =         0.00000000
  -V(xc)+E(xc)   XCENC  =        40.50184906
  PAW double counting   =       855.56104667     -858.05661141
  entropy T*S    EENTRO =        -0.00000000
  eigenvalues    EBANDS =      -152.31744098
  atomic energy  EATOM  =       579.51226814
  ---------------------------------------------------
  free energy    TOTEN  =       -14.79126876 eV

  energy without entropy =      -14.79126876  energy(sigma->0) =      -14.79126876


--------------------------------------------------------------------------------------------------------


  average scaling for gradient   2.0599


 average (electrostatic) potential at core
  the test charge radii are     0.6991  0.7215
  (the norm of the test charge is              1.0000)
       1 -61.6739       2 -83.5573



 E-fermi :  -8.7081     XC(G=0):  -0.0850     alpha+bet : -0.0207

 Fermi energy:        -8.7080638144

 k-point     1 :       0.0000    0.0000    0.0000
  band No.  band energies     occupation
      1     -29.4087      2.00000
      2     -14.0481      2.00000
      3     -11.8300      2.00000
      4     -11.8300      2.00000
      5      -9.0418      2.00000
      6      -2.0545      0.00000
      7      -2.0545      0.00000
      8      -0.1038      0.00000
      9       0.1590      0.00000
     10       0.2953      0.00000
     11       0.3380      0.00000
     12       0.3380      0.00000
     13       0.3565      0.00000
     14       0.3773      0.00000
     15       0.5688      0.00000
     16       0.6185      0.00000
     17       0.6296      0.00000
     18       0.6296      0.00000
     19       0.7080      0.00000
     20       0.7080      0.00000
     21       0.7109      0.00000
     22       0.7182      0.00000
     23       0.7412      0.00000
     24       0.7416      0.00000
     25       0.7416      0.00000
     26       0.7436      0.00000
     27       0.9991      0.00000
     28       1.0262      0.00000
     29       1.0262      0.00000
     30       1.0481      0.00000
     31       1.0694      0.00000
     32       1.0778      0.00000
     33       1.0778      0.00000
     34       1.0905      0.00000
     35       1.2748      0.00000
     36       1.3071      0.00000
     37       1.4224      0.00000
     38       1.4224      0.00000
     39       1.4536      0.00000
     40       1.4826      0.00000
     41       1.5426      0.00000
     42       1.6280      0.00000
     43       1.6546      0.00000
     44       1.6546      0.00000
     45       1.7002      0.00000
     46       1.7002      0.00000
     47       1.7166      0.00000
     48       1.7263      0.00000
     49       1.7474      0.00000
     50       1.7474      0.00000
     51       1.7670      0.00000
     52       1.7933      0.00000
     53       1.8117      0.00000
     54       1.8229      0.00000
     55       1.8249      0.00000
     56       1.8249      0.00000
     57       1.8352      0.00000
     58       1.8576      0.00000
     59       1.8576      0.00000
     60       1.8655      0.00000
     61       1.8758      0.00000
     62       1.8800      0.00000
     63       1.8800      0.00000
     64       1.8832      0.00000


--------------------------------------------------------------------------------------------------------


 soft charge-density along one line, spin component           1
         0         1         2         3         4         5         6         7         8         9
 total charge-density along one line

 pseudopotential strength for first ion, spin component:           1
 10.418  13.859   0.000   0.034   0.000  -0.000  -0.102  -0.000
 13.859  18.436   0.000   0.044   0.000  -0.000  -0.135  -0.000
  0.000   0.000  -4.531  -0.000   0.000   8.874  -0.000  -0.000
  0.034   0.044  -0.000  -4.572   0.000  -0.000   8.935  -0.000
  0.000   0.000   0.000   0.000  -4.531  -0.000  -0.000   8.874
 -0.000  -0.000   8.874  -0.000  -0.000 -19.528   0.000   0.000
 -0.102  -0.135  -0.000   8.935  -0.000   0.000 -19.609   0.000
 -0.000  -0.000  -0.000  -0.000   8.874   0.000   0.000 -19.528
 total augmentation occupancy for first ion, spin component:           1
  7.489  -3.425   0.000   2.181  -0.000   0.000   0.395  -0.000
 -3.425   1.967  -0.000  -1.652   0.000  -0.000  -0.239  -0.000
  0.000  -0.000   0.834  -0.000  -0.000   0.061   0.000  -0.000
  2.181  -1.652  -0.000   2.259  -0.000  -0.000   0.212   0.000
 -0.000   0.000  -0.000  -0.000   0.834  -0.000  -0.000   0.061
  0.000  -0.000   0.061  -0.000  -0.000   0.005   0.000  -0.000
  0.395  -0.239   0.000   0.212  -0.000   0.000   0.029   0.000
 -0.000  -0.000  -0.000   0.000   0.061  -0.000   0.000   0.005


------------------------ aborting loop because EDIFF is reached ----------------------------------------


    FORLOC:  cpu time      0.0027: real time      0.0027
    FORNL :  cpu time      0.0022: real time      0.0022
    STRESS:  cpu time      0.0636: real time      0.0636
    FORCOR:  cpu time      0.1024: real time      0.1024
    OFIELD:  cpu time      0.0002: real time      0.0002

  Number of pair interactions contributing to vdW energy:     221
  Edisp (eV):   -0.00003
    FORVDW:  cpu time      0.0001: real time      0.0001

  FORCE on cell =-STRESS in cart. coord.  units (eV):
  Direction    XX          YY          ZZ          XY          YZ          ZX
  --------------------------------------------------------------------------------------
  Alpha Z     0.05171     0.05171     0.05171
  Ewald     -31.59273   -31.59273   268.12874     0.00000    -0.00000    -0.00000
  Hartree   194.58554   194.58554   295.81663    -0.00000     0.00000     0.00000
  E(xc)     -44.08232   -44.08232   -42.97345    -0.00000     0.00000     0.00000
  Local    -298.02503  -298.02503  -671.20574     0.00000     0.00000    -0.00000
  n-local   -18.37599   -18.37599   -29.96836    -0.00000     0.00000    -0.00000
  augment     6.25428     6.25428     5.69141    -0.00000    -0.00000    -0.00000
  Kinetic   191.12229   191.12229   175.72219     0.00000    -0.00000     0.00000
  Fock        0.00000     0.00000     0.00000     0.00000     0.00000     0.00000
  vdW        -0.00000    -0.00000     0.00006     0.00000    -0.00000    -0.00000
  -------------------------------------------------------------------------------------
  Total      -0.06224    -0.06224     1.26318    -0.00000    -0.00000    -0.00000
  in kB      -0.01180    -0.01180     0.23949    -0.00000    -0.00000    -0.00000
  external pressure =        0.07 kB  Pullay stress =        0.00 kB


 VOLUME and BASIS-vectors are now :
 -----------------------------------------------------------------------------
  energy-cutoff  :      600.00
  volume of cell :     8450.53
      direct lattice vectors                 reciprocal lattice vectors
    20.000000000  0.000000000  0.000000000     0.050000000  0.000000000  0.000000000
     0.000000000 20.000000000  0.000000000     0.000000000  0.050000000  0.000000000
     0.000000000  0.000000000 21.126328287     0.000000000  0.000000000  0.047334302

  length of vectors
    20.000000000 20.000000000 21.126328287     0.050000000  0.050000000  0.047334302


 FORCES acting on ions:
    Electron-Ion                     Ewald-Force                    Non-Local-Force
 -----------------------------------------------------------------------------------------------
   -.692E-08 -.200E-07 0.240E+03   0.588E-16 0.687E-16 -.269E+03   -.745E-10 0.112E-07 0.281E+02
   -.948E-08 -.200E-07 -.208E+03   -.743E-16 -.825E-16 0.269E+03   -.683E-09 -.131E-07 -.601E+02
 -----------------------------------------------------------------------------------------------
   -.164E-07 -.401E-07 0.320E+02   -.154E-16 -.138E-16 0.000E+00   -.758E-09 -.196E-08 -.320E+02


 POSITION                                       TOTAL-FORCE (eV/Angst)
 -----------------------------------------------------------------------------------
     10.00000     10.00000      9.99169         0.000000      0.000000     -1.179192
     10.00000     10.00000     11.12464        -0.000000     -0.000000      1.179192
 -----------------------------------------------------------------------------------
    total drift:                               -0.000000     -0.000000      0.000813


--------------------------------------------------------------------------------------------------------



  FREE ENERGIE OF THE ION-ELECTRON SYSTEM (eV)
  ---------------------------------------------------
  free  energy   TOTEN  =       -14.79129876 eV

  energy  without entropy=      -14.79129876  energy(sigma->0) =      -14.79129876

 d Force =-0.8196920E-03[-0.236E-01, 0.219E-01]  d Energy =-0.2795817E-03-0.540E-03
 d Force =-0.5289016E+01[-0.538E+01,-0.520E+01]  d Ewald  =-0.5288206E+01-0.810E-03


--------------------------------------------------------------------------------------------------------


    POTLOK:  cpu time      0.2129: real time      0.2131


--------------------------------------------------------------------------------------------------------


 Finite differences progress:
  Degree of freedom:   6/  6
  Displacement:        2/  2
  Total:              12/ 12

 SECOND DERIVATIVES (NOT SYMMETRIZED)
 ------------------------------------
               1X          1Y          1Z          2X          2Y          2Z
  1X    -0.008454   -0.000000   -0.000470    0.008454    0.000000    0.000470
  1Y    -0.001368   -0.008229   -0.000690    0.001368    0.008229    0.000690
  1Z    -0.000000    0.001575 -113.846413    0.000000   -0.001575  113.846413
  2X     0.005555   -0.000000    0.001621   -0.005555    0.000000   -0.001621
  2Y    -0.000065    0.002482    0.000180    0.000065   -0.002482   -0.000180
  2Z    -0.000000   -0.003241  113.820777    0.000000    0.003241 -113.820777


 Eigenvectors and eigenvalues of the dynamical matrix
 ----------------------------------------------------


   1 f  =   63.680163 THz   400.114265 2PiTHz 2124.141596 cm-1   263.359874 meV
             X         Y         Z           dx          dy          dz
     10.000000 10.000000  9.991692     0.000002   -0.000005    0.755817
     10.000000 10.000000 11.134637    -0.000005    0.000006   -0.654783

   2 f  =    0.514811 THz     3.234653 2PiTHz   17.172245 cm-1     2.129086 meV
             X         Y         Z           dx          dy          dz
     10.000000 10.000000  9.991692    -0.771978   -0.296945   -0.011017
     10.000000 10.000000 11.134637     0.548587    0.121006   -0.012719

   3 f  =    0.461297 THz     2.898414 2PiTHz   15.387210 cm-1     1.907770 meV
             X         Y         Z           dx          dy          dz
     10.000000 10.000000  9.991692    -0.264546    0.829926    0.041755
     10.000000 10.000000 11.134637     0.178832   -0.452982    0.048184

   4 f/i=    0.003335 THz     0.020953 2PiTHz    0.111235 cm-1     0.013791 meV
             X         Y         Z           dx          dy          dz
     10.000000 10.000000  9.991692     0.089852   -0.180746    0.622872
     10.000000 10.000000 11.134637     0.103827   -0.208742    0.718981

   5 f/i=    0.050069 THz     0.314591 2PiTHz    1.670114 cm-1     0.207068 meV
             X         Y         Z           dx          dy          dz
     10.000000 10.000000  9.991692     0.570585   -0.004260   -0.099778
     10.000000 10.000000 11.134637     0.805743   -0.044383   -0.115179

   6 f/i=    0.114444 THz     0.719073 2PiTHz    3.817444 cm-1     0.473302 meV
             X         Y         Z           dx          dy          dz
     10.000000 10.000000  9.991692    -0.020604   -0.436302   -0.170148
     10.000000 10.000000 11.134637    -0.084073   -0.857101   -0.196406

 Finite differences POTIM=   1.0000000000000000E-002
     LOOP+:  cpu time     10.4510: real time     10.5476
    4ORBIT:  cpu time      0.0000: real time      0.0000

 total amount of memory used by VASP MPI-rank0    79043. kBytes
=======================================================================

   base      :      30000. kBytes
   nonl-proj :       2826. kBytes
   fftplans  :      15799. kBytes
   grid      :      29568. kBytes
   one-center:          1. kBytes
   wavefun   :        849. kBytes



 General timing and accounting informations for this job:
 ========================================================

                  Total CPU time used (sec):      178.158
                            User time (sec):      175.634
                          System time (sec):        2.524
                         Elapsed time (sec):      189.395

                   Maximum memory used (kb):      191348.
                   Average memory used (kb):          N/A

                          Minor page faults:        27739
                          Major page faults:            0
                 Voluntary context switches:        19196
