 **********************************************************************
                          MRCC program system
 **********************************************************************

                              Written by
     Mihaly Kallay, Peter R. Nagy, David Mester, Laszlo Gyevi-Nagy,
        Jozsef Csoka, P. Bernat Szabo, Zoltan Rolik, Gyula Samu,
     Jozsef Csontos, Bence Hegely, Adam Ganyecz, Istvan Ladjanszki,
       Lorant Szegedy, Bence Ladoczki, Klara Petrov, Mate Farkas,
                    Pal D. Mezei, and Reka A. Horvath

        Department of Physical Chemistry and Materials Science
            Budapest University of Technology and Economics
                  Budapest P.O.Box 91, H-1521 Hungary

                              www.mrcc.hu

                     Release date: August 28, 2023

 ************************ 2024-11-25 16:10:43 *************************
 Executing minp...

 Reading input from MINP...

 Input file:

calc=LNO-CCSD(T)
scftype=rhf
verbosity=3
mem=200000MB
symm=off
unit=angs
scfiguess=restart
scfmaxit=1000
scfalg=locfit1
bpedo=0.99999
ccmaxit=400
usedisk=0
ccsdalg=dfdirect
ccsdthreads=4
ccsdmkl=thr
ptthreads=4
lcorthr=tight
basis_sm=special
def2-SVP
def2-SVP
def2-SVP
def2-SVP
def2-SVP
def2-SVP
def2-SVP
def2-SVP
def2-SVP
def2-SVP
def2-SVP
def2-SVP
def2-SVP
def2-SVP
def2-SVP
def2-SVP
def2-SVP
def2-SVP
def2-SVP
def2-SVP
def2-SVP
def2-SVP
def2-SVP
def2-SVP


basis=special
aug-cc-pVTZ
aug-cc-pVTZ
cc-pVTZ
aug-cc-pVTZ
aug-cc-pVTZ
aug-cc-pVTZ
aug-cc-pVTZ
aug-cc-pVTZ
cc-pVTZ
cc-pVTZ
cc-pVTZ
cc-pVTZ
aug-cc-pVTZ
aug-cc-pVTZ
aug-cc-pVTZ
aug-cc-pVTZ
aug-cc-pVTZ
aug-cc-pVTZ
aug-cc-pVTZ
aug-cc-pVTZ
aug-cc-pVTZ
aug-cc-pVTZ
aug-cc-pVTZ
aug-cc-pVTZ


dfbasis_scf=special
def2-QZVPP-RI-JK
def2-QZVPP-RI-JK
def2-QZVPP-RI-JK
def2-QZVPP-RI-JK
def2-QZVPP-RI-JK
def2-QZVPP-RI-JK
def2-QZVPP-RI-JK
def2-QZVPP-RI-JK
def2-QZVPP-RI-JK
def2-QZVPP-RI-JK
def2-QZVPP-RI-JK
def2-QZVPP-RI-JK
def2-QZVPP-RI-JK
def2-QZVPP-RI-JK
def2-QZVPP-RI-JK
def2-QZVPP-RI-JK
def2-QZVPP-RI-JK
def2-QZVPP-RI-JK
def2-QZVPP-RI-JK
def2-QZVPP-RI-JK
def2-QZVPP-RI-JK
def2-QZVPP-RI-JK
def2-QZVPP-RI-JK
def2-QZVPP-RI-JK


dfbasis_cor=special
aug-cc-pVTZ-RI
aug-cc-pVTZ-RI
cc-pVTZ-RI
aug-cc-pVTZ-RI
aug-cc-pVTZ-RI
aug-cc-pVTZ-RI
aug-cc-pVTZ-RI
aug-cc-pVTZ-RI
cc-pVTZ-RI
cc-pVTZ-RI
cc-pVTZ-RI
cc-pVTZ-RI
aug-cc-pVTZ-RI
aug-cc-pVTZ-RI
aug-cc-pVTZ-RI
aug-cc-pVTZ-RI
aug-cc-pVTZ-RI
aug-cc-pVTZ-RI
aug-cc-pVTZ-RI
aug-cc-pVTZ-RI
aug-cc-pVTZ-RI
aug-cc-pVTZ-RI
aug-cc-pVTZ-RI
aug-cc-pVTZ-RI


ecp=special
none
none
none
none
none
none
none
none
none
none
none
none
none
none
none
none
none
none
none
none
none
none
none
none

charge=0
mult=1
core=2
geom=xyz
24

C                       0.00000000000    0.00000000000    2.44102235837
O                       0.00000000000    0.00000000000    3.58784217303
Mg                      0.00000000000    0.00000000000    0.00000000000
O                      -2.12018425659    0.00000000000    0.00567209089
O                       0.00000000000    2.12018425659    0.00567209089
O                       2.12018425659    0.00000000000    0.00567209089
O                       0.00000000000   -2.12018425659    0.00567209089
O                       0.00000000000    0.00000000000   -2.14129966123
Mg                     -2.11144262254    2.11144262254   -0.04367284424
Mg                      2.11144262254    2.11144262254   -0.04367284424
Mg                      2.11144262254   -2.11144262254   -0.04367284424
Mg                     -2.11144262254   -2.11144262254   -0.04367284424
O                      -2.11070451449    2.11070451449   -2.14923989662
O                       2.11070451449    2.11070451449   -2.14923989662
O                       2.11070451449   -2.11070451449   -2.14923989662
O                      -2.11070451449   -2.11070451449   -2.14923989662
O                      -4.22049352791    2.11209139723    0.00772802266
O                      -2.11209139723    4.22049352791    0.00772802266
O                       2.11209139723    4.22049352791    0.00772802266
O                       4.22049352791    2.11209139723    0.00772802266
O                       4.22049352791   -2.11209139723    0.00772802266
O                       2.11209139723   -4.22049352791    0.00772802266
O                      -2.11209139723   -4.22049352791    0.00772802266
O                      -4.22049352791   -2.11209139723    0.00772802266

ghost=serialno
3,4,5,6,7,8,9,10,11,12,13,14,15,16,17,18,19,20,21,22,23,24




 Checking keyword combinations...

 Keywords:

 active=none
 agrid=ld0006-ld0590
 agrid_pssp=ld0006-ld0194
 agrid_pssp_sm=ld0006-ld0074
 basis=special
 basis_sm=special
 basopt=off
 bfbasis=none
 bfgsmem=10
 bfgstol=1.0d-3
 boysalg=jacobi
 bpcompo=0.985
 bpcompv=0.98
 bpdfo=0.985
 bpocc=0.99999
 bppdo=0.999d0
 bppdv=0.98
 bpedo=0.99999
 bpedv=0.995d0
 calc=ccsd(t)
 ccmaxit=400
 ccprog=ccsd
 ccsdalg=dfdirect
 ccsdmkl=thr
 ccsdrest=off
 ccsdthreads=4
 cctol=5
 charge=0
 cialg=direct
 ciguess=off
 cmpgrp=auto
 comprest=off
 coord_sys=ric
 core=2
 corembed=off
 csapprox=off
 cvs=off
 dboc=off
 delocsomofact=
 dendec=cholesky
 dens=0
 denscorr=0
 dfalg=lineq
 dfbasis_cab=none
 dfbasis_cor=special
 dfbasis_scf=special
 dfbasis_scf_sm=special
 dfintran=drpa
 dft=off
 dhexc=adc(2)
 diag=david
 docc=
 domrad=10.d0
 drpaalg=auto
 dual=off
 dual_df=off
 ecp=special
 edisp=off
 edisp_embed=off
 embed=off
 epairestfact=off
 epairscale=1.d0
 etemp=300
 epert=none
 eps=
 espcharge=off
 excrad=1.0
 excrad_fin=0.100000000D-02
 fitting=coulomb
 fmm=off
 fmmord=8
 fnonorb=
 freq=off
 gamma=1.d0
 gauss=spher
 geom=xyz
 gopt=off
 ghost=serialno
 gtol=7
 grdens=off
 grid=auto
 grid_sm=auto
 gridbatch_cos=2000
 grtol=10
 guido_ct=off
 hamilton=dc
 iface=none
 intalg=auto
 ip_ea=off
 itol=10
 laptol=1.d-3
 lccoporder=lccfirst
 lcorthr=tight
 lccrest=off
 ldfgrad_tol=8
 lmp2dens=on
 lnoepso=3e-6
 lnoepsv=3e-7
 localcc=2021
 localcorrsymm=off
 locintrf=direct
 mact=
 maxact=off
 maxdim=200
 maxex=0
 maxmicroit=100
 mcscfiguess=hf
 mem=200000mb
 mmprog=
 molden=on
 mpitasks=1
 mulmet=3
 mult=1
 nab=off
 nacto=0
 nactv=0
 naf_amp=3.16d-3
 naf_cor=1e-2
 naf_f12=off
 naf_scf=off
 nafalg=albe
 nafdens=off
 naftyp=jpq
 nchol=auto
 ndeps=1e-3
 nstate=1
 nsing=0
 nto=off
 ntrip=0
 num_grad=off
 occ=
 occri=off
 oniom=off
 oniom_eechg=off
 oniom_pcm=off
 oniom_qcorr=off
 optalg=
 optmaxit=50
 optetol=1e-6
 optex=0
 optgtol=1e-4
 optstol=1e-3
 orblocc=off
 orbloce=off
 orbloco=boys
 orblocv=pao
 orblocguess=cholesky
 osveps=-1.d0
 ovirt=off
 ovltol=1e-7
 ovosnorb=80.0
 pao_subsys_tol=1e-3
 pcm=off
 popul=off
 pressure=100000
 pssp=off
 ptfreq=0.0
 ptthreads=4
 qmreg=
 qmmm=off
 qro=off
 qscf=off
 redcost_exc=off
 redcost_tddft=0.985d0
 refdet=none
 rest=0
 rgrid=log3
 rism=off
 rohfcore=standard
 rohftype=semicanonical
 scfalg=locfit1
 scf_conv=auto
 scfdamp=0.0d0
 scfdamp_mode=off
 scfdamp_end=1000
 scfdamp_dampstep=0.d0
 scfdamp_dtol=0.0d0
 scfdamp_maxfact=0.0d0
 scfdamp_minfact=0.0d0
 scfdiis=on
 scfdiis_dtol=0.0d0
 scfdiis_end=1000
 scfdiis_start=2
 scfdiis_step=1
 scfdiis_watch=off
 scfdiis_wrange=10
 scfdiis_wlimit=5
 scfdiis_delmax=2
 scfdtol=7
 scfext=10
 scfguessdens=
 scfiguess=restart
 scfloc=pm
 scflshift=0.20
 scflshift_end=8
 scflshift_dtol=0.0
 scflshift_gaptol=0.20
 scfmaxit=1000
 scftype=rhf
 scftol=6
 scspe=1.d0
 scsph=1.d0
 scsps=1.2d0
 scsps_t=1.2d0
 scspt=0.33333333333333
 scspt_t=0.33333333333333
 scspv=1.d0
 spairtol=-1.d0
 sqmprog=
 subminp=top
 symm=0
 talg=lapl
 temp=298.15
 test=off
 theodore=off
 tlmo=0.999
 tpao=0.94
 tprint=off
 uncontract=off
 unit=angs
 usedisk=0
 verbosity=3
 wpairtol=3.d-6

 ************************ 2024-11-25 16:10:45 *************************
 Executing integ...

 Allocation of 195.3 Gbytes of memory...


 Number of atoms:                 24
 Charge:                           0
 Number of electrons:             14
 Number of core electrons:         4
 Spin multiplicity:                1

                 Cartesian coordinates [bohr]      Atomic mass [AMU]  Z
   1  C     0.00000000    0.00000000    4.61286372    12.000000       6
   2  O     0.00000000    0.00000000    6.78003909    15.994915       8
   3  Mg    0.00000000    0.00000000    0.00000000     0.000000       0
   4  O    -4.00656758    0.00000000    0.01071870     0.000000       0
   5  O     0.00000000    4.00656758    0.01071870     0.000000       0
   6  O     4.00656758    0.00000000    0.01071870     0.000000       0
   7  O     0.00000000   -4.00656758    0.01071870     0.000000       0
   8  O     0.00000000    0.00000000   -4.04646991     0.000000       0
   9  Mg   -3.99004829    3.99004829   -0.08252971     0.000000       0
  10  Mg    3.99004829    3.99004829   -0.08252971     0.000000       0
  11  Mg    3.99004829   -3.99004829   -0.08252971     0.000000       0
  12  Mg   -3.99004829   -3.99004829   -0.08252971     0.000000       0
  13  O    -3.98865346    3.98865346   -4.06147478     0.000000       0
  14  O     3.98865346    3.98865346   -4.06147478     0.000000       0
  15  O     3.98865346   -3.98865346   -4.06147478     0.000000       0
  16  O    -3.98865346   -3.98865346   -4.06147478     0.000000       0
  17  O    -7.97557688    3.99127429    0.01460385     0.000000       0
  18  O    -3.99127429    7.97557688    0.01460385     0.000000       0
  19  O     3.99127429    7.97557688    0.01460385     0.000000       0
  20  O     7.97557688    3.99127429    0.01460385     0.000000       0
  21  O     7.97557688   -3.99127429    0.01460385     0.000000       0
  22  O     3.99127429   -7.97557688    0.01460385     0.000000       0
  23  O    -3.99127429   -7.97557688    0.01460385     0.000000       0
  24  O    -7.97557688   -3.99127429    0.01460385     0.000000       0

 This molecule is a prolate symmetric top.

 Point group: C4v
 Computational point group: C1

 Cartesian coordinates in standard orientation [bohr]
   1  C    -0.00000000   -0.00000000    2.66572096
   2  O    -0.00000000   -0.00000000    4.83289632
   3  Mg   -0.00000000   -0.00000000   -1.94714277
   4  O     4.00656758   -0.00000000   -1.93642407
   5  O     0.00000000    4.00656758   -1.93642407
   6  O    -4.00656758    0.00000000   -1.93642407
   7  O    -0.00000000   -4.00656758   -1.93642407
   8  O    -0.00000000   -0.00000000   -5.99361268
   9  Mg    3.99004829    3.99004829   -2.02967248
  10  Mg   -3.99004829    3.99004829   -2.02967248
  11  Mg   -3.99004829   -3.99004829   -2.02967248
  12  Mg    3.99004829   -3.99004829   -2.02967248
  13  O     3.98865346    3.98865346   -6.00861755
  14  O    -3.98865346    3.98865346   -6.00861755
  15  O    -3.98865346   -3.98865346   -6.00861755
  16  O     3.98865346   -3.98865346   -6.00861755
  17  O     7.97557688    3.99127429   -1.93253892
  18  O     3.99127429    7.97557688   -1.93253892
  19  O    -3.99127429    7.97557688   -1.93253892
  20  O    -7.97557688    3.99127429   -1.93253892
  21  O    -7.97557688   -3.99127429   -1.93253892
  22  O    -3.99127429   -7.97557688   -1.93253892
  23  O     3.99127429   -7.97557688   -1.93253892
  24  O     7.97557688   -3.99127429   -1.93253892

 Nuclear repulsion energy [au]:         22.148646010002


 Basis set information:

 Maximum angular momentum: g
 Maximum number of contracted Gaussians:   13
 Maximum number of primitive Gaussians:    16
 Spherical harmonic GTOs are used.


 Conventional basis set:

   1  C  aug-cc-pvtz [ 11s 6p 3d 2f | 5s 4p 3d 2f ]
   2  O  aug-cc-pvtz [ 11s 6p 3d 2f | 5s 4p 3d 2f ]
   3  Mg cc-pvtz [ 15s 10p 2d 1f | 5s 4p 2d 1f ]
   4  O  aug-cc-pvtz [ 11s 6p 3d 2f | 5s 4p 3d 2f ]
   5  O  aug-cc-pvtz [ 11s 6p 3d 2f | 5s 4p 3d 2f ]
   6  O  aug-cc-pvtz [ 11s 6p 3d 2f | 5s 4p 3d 2f ]
   7  O  aug-cc-pvtz [ 11s 6p 3d 2f | 5s 4p 3d 2f ]
   8  O  aug-cc-pvtz [ 11s 6p 3d 2f | 5s 4p 3d 2f ]
   9  Mg cc-pvtz [ 15s 10p 2d 1f | 5s 4p 2d 1f ]
  10  Mg cc-pvtz [ 15s 10p 2d 1f | 5s 4p 2d 1f ]
  11  Mg cc-pvtz [ 15s 10p 2d 1f | 5s 4p 2d 1f ]
  12  Mg cc-pvtz [ 15s 10p 2d 1f | 5s 4p 2d 1f ]
  13  O  aug-cc-pvtz [ 11s 6p 3d 2f | 5s 4p 3d 2f ]
  14  O  aug-cc-pvtz [ 11s 6p 3d 2f | 5s 4p 3d 2f ]
  15  O  aug-cc-pvtz [ 11s 6p 3d 2f | 5s 4p 3d 2f ]
  16  O  aug-cc-pvtz [ 11s 6p 3d 2f | 5s 4p 3d 2f ]
  17  O  aug-cc-pvtz [ 11s 6p 3d 2f | 5s 4p 3d 2f ]
  18  O  aug-cc-pvtz [ 11s 6p 3d 2f | 5s 4p 3d 2f ]
  19  O  aug-cc-pvtz [ 11s 6p 3d 2f | 5s 4p 3d 2f ]
  20  O  aug-cc-pvtz [ 11s 6p 3d 2f | 5s 4p 3d 2f ]
  21  O  aug-cc-pvtz [ 11s 6p 3d 2f | 5s 4p 3d 2f ]
  22  O  aug-cc-pvtz [ 11s 6p 3d 2f | 5s 4p 3d 2f ]
  23  O  aug-cc-pvtz [ 11s 6p 3d 2f | 5s 4p 3d 2f ]
  24  O  aug-cc-pvtz [ 11s 6p 3d 2f | 5s 4p 3d 2f ]

 Basis functions:
            1             2             3             4             5             6             7             8             9            10
    0    1C1s          1C2s          1C3s          1C4s          1C5s          1C1pz         1C1py         1C1px         1C2pz         1C2py
    1    1C2px         1C3pz         1C3py         1C3px         1C4pz         1C4py         1C4px         1C1d-2        1C1d-1        1C1d0
    2    1C1d+1        1C1d+2        1C2d-2        1C2d-1        1C2d0         1C2d+1        1C2d+2        1C3d-2        1C3d-1        1C3d0
    3    1C3d+1        1C3d+2        1C1f-3        1C1f-2        1C1f-1        1C1f0         1C1f+1        1C1f+2        1C1f+3        1C2f-3
    4    1C2f-2        1C2f-1        1C2f0         1C2f+1        1C2f+2        1C2f+3        2O1s          2O2s          2O3s          2O4s
    5    2O5s          2O1pz         2O1py         2O1px         2O2pz         2O2py         2O2px         2O3pz         2O3py         2O3px
    6    2O4pz         2O4py         2O4px         2O1d-2        2O1d-1        2O1d0         2O1d+1        2O1d+2        2O2d-2        2O2d-1
    7    2O2d0         2O2d+1        2O2d+2        2O3d-2        2O3d-1        2O3d0         2O3d+1        2O3d+2        2O1f-3        2O1f-2
    8    2O1f-1        2O1f0         2O1f+1        2O1f+2        2O1f+3        2O2f-3        2O2f-2        2O2f-1        2O2f0         2O2f+1
    9    2O2f+2        2O2f+3        3Mg1s         3Mg2s         3Mg3s         3Mg4s         3Mg5s         3Mg1pz        3Mg1py        3Mg1px
   10    3Mg2pz        3Mg2py        3Mg2px        3Mg3pz        3Mg3py        3Mg3px        3Mg4pz        3Mg4py        3Mg4px        3Mg1d-2
   11    3Mg1d-1       3Mg1d0        3Mg1d+1       3Mg1d+2       3Mg2d-2       3Mg2d-1       3Mg2d0        3Mg2d+1       3Mg2d+2       3Mg1f-3
   12    3Mg1f-2       3Mg1f-1       3Mg1f0        3Mg1f+1       3Mg1f+2       3Mg1f+3       4O1s          4O2s          4O3s          4O4s
   13    4O5s          4O1pz         4O1py         4O1px         4O2pz         4O2py         4O2px         4O3pz         4O3py         4O3px
   14    4O4pz         4O4py         4O4px         4O1d-2        4O1d-1        4O1d0         4O1d+1        4O1d+2        4O2d-2        4O2d-1
   15    4O2d0         4O2d+1        4O2d+2        4O3d-2        4O3d-1        4O3d0         4O3d+1        4O3d+2        4O1f-3        4O1f-2
   16    4O1f-1        4O1f0         4O1f+1        4O1f+2        4O1f+3        4O2f-3        4O2f-2        4O2f-1        4O2f0         4O2f+1
   17    4O2f+2        4O2f+3        5O1s          5O2s          5O3s          5O4s          5O5s          5O1pz         5O1py         5O1px
   18    5O2pz         5O2py         5O2px         5O3pz         5O3py         5O3px         5O4pz         5O4py         5O4px         5O1d-2
   19    5O1d-1        5O1d0         5O1d+1        5O1d+2        5O2d-2        5O2d-1        5O2d0         5O2d+1        5O2d+2        5O3d-2
   20    5O3d-1        5O3d0         5O3d+1        5O3d+2        5O1f-3        5O1f-2        5O1f-1        5O1f0         5O1f+1        5O1f+2
   21    5O1f+3        5O2f-3        5O2f-2        5O2f-1        5O2f0         5O2f+1        5O2f+2        5O2f+3        6O1s          6O2s
   22    6O3s          6O4s          6O5s          6O1pz         6O1py         6O1px         6O2pz         6O2py         6O2px         6O3pz
   23    6O3py         6O3px         6O4pz         6O4py         6O4px         6O1d-2        6O1d-1        6O1d0         6O1d+1        6O1d+2
   24    6O2d-2        6O2d-1        6O2d0         6O2d+1        6O2d+2        6O3d-2        6O3d-1        6O3d0         6O3d+1        6O3d+2
   25    6O1f-3        6O1f-2        6O1f-1        6O1f0         6O1f+1        6O1f+2        6O1f+3        6O2f-3        6O2f-2        6O2f-1
   26    6O2f0         6O2f+1        6O2f+2        6O2f+3        7O1s          7O2s          7O3s          7O4s          7O5s          7O1pz
   27    7O1py         7O1px         7O2pz         7O2py         7O2px         7O3pz         7O3py         7O3px         7O4pz         7O4py
   28    7O4px         7O1d-2        7O1d-1        7O1d0         7O1d+1        7O1d+2        7O2d-2        7O2d-1        7O2d0         7O2d+1
   29    7O2d+2        7O3d-2        7O3d-1        7O3d0         7O3d+1        7O3d+2        7O1f-3        7O1f-2        7O1f-1        7O1f0
   30    7O1f+1        7O1f+2        7O1f+3        7O2f-3        7O2f-2        7O2f-1        7O2f0         7O2f+1        7O2f+2        7O2f+3
   31    8O1s          8O2s          8O3s          8O4s          8O5s          8O1pz         8O1py         8O1px         8O2pz         8O2py
   32    8O2px         8O3pz         8O3py         8O3px         8O4pz         8O4py         8O4px         8O1d-2        8O1d-1        8O1d0
   33    8O1d+1        8O1d+2        8O2d-2        8O2d-1        8O2d0         8O2d+1        8O2d+2        8O3d-2        8O3d-1        8O3d0
   34    8O3d+1        8O3d+2        8O1f-3        8O1f-2        8O1f-1        8O1f0         8O1f+1        8O1f+2        8O1f+3        8O2f-3
   35    8O2f-2        8O2f-1        8O2f0         8O2f+1        8O2f+2        8O2f+3        9Mg1s         9Mg2s         9Mg3s         9Mg4s
   36    9Mg5s         9Mg1pz        9Mg1py        9Mg1px        9Mg2pz        9Mg2py        9Mg2px        9Mg3pz        9Mg3py        9Mg3px
   37    9Mg4pz        9Mg4py        9Mg4px        9Mg1d-2       9Mg1d-1       9Mg1d0        9Mg1d+1       9Mg1d+2       9Mg2d-2       9Mg2d-1
   38    9Mg2d0        9Mg2d+1       9Mg2d+2       9Mg1f-3       9Mg1f-2       9Mg1f-1       9Mg1f0        9Mg1f+1       9Mg1f+2       9Mg1f+3
   39   10Mg1s        10Mg2s        10Mg3s        10Mg4s        10Mg5s        10Mg1pz       10Mg1py       10Mg1px       10Mg2pz       10Mg2py
   40   10Mg2px       10Mg3pz       10Mg3py       10Mg3px       10Mg4pz       10Mg4py       10Mg4px       10Mg1d-2      10Mg1d-1      10Mg1d0
   41   10Mg1d+1      10Mg1d+2      10Mg2d-2      10Mg2d-1      10Mg2d0       10Mg2d+1      10Mg2d+2      10Mg1f-3      10Mg1f-2      10Mg1f-1
   42   10Mg1f0       10Mg1f+1      10Mg1f+2      10Mg1f+3      11Mg1s        11Mg2s        11Mg3s        11Mg4s        11Mg5s        11Mg1pz
   43   11Mg1py       11Mg1px       11Mg2pz       11Mg2py       11Mg2px       11Mg3pz       11Mg3py       11Mg3px       11Mg4pz       11Mg4py
   44   11Mg4px       11Mg1d-2      11Mg1d-1      11Mg1d0       11Mg1d+1      11Mg1d+2      11Mg2d-2      11Mg2d-1      11Mg2d0       11Mg2d+1
   45   11Mg2d+2      11Mg1f-3      11Mg1f-2      11Mg1f-1      11Mg1f0       11Mg1f+1      11Mg1f+2      11Mg1f+3      12Mg1s        12Mg2s
   46   12Mg3s        12Mg4s        12Mg5s        12Mg1pz       12Mg1py       12Mg1px       12Mg2pz       12Mg2py       12Mg2px       12Mg3pz
   47   12Mg3py       12Mg3px       12Mg4pz       12Mg4py       12Mg4px       12Mg1d-2      12Mg1d-1      12Mg1d0       12Mg1d+1      12Mg1d+2
   48   12Mg2d-2      12Mg2d-1      12Mg2d0       12Mg2d+1      12Mg2d+2      12Mg1f-3      12Mg1f-2      12Mg1f-1      12Mg1f0       12Mg1f+1
   49   12Mg1f+2      12Mg1f+3      13O1s         13O2s         13O3s         13O4s         13O5s         13O1pz        13O1py        13O1px
   50   13O2pz        13O2py        13O2px        13O3pz        13O3py        13O3px        13O4pz        13O4py        13O4px        13O1d-2
   51   13O1d-1       13O1d0        13O1d+1       13O1d+2       13O2d-2       13O2d-1       13O2d0        13O2d+1       13O2d+2       13O3d-2
   52   13O3d-1       13O3d0        13O3d+1       13O3d+2       13O1f-3       13O1f-2       13O1f-1       13O1f0        13O1f+1       13O1f+2
   53   13O1f+3       13O2f-3       13O2f-2       13O2f-1       13O2f0        13O2f+1       13O2f+2       13O2f+3       14O1s         14O2s
   54   14O3s         14O4s         14O5s         14O1pz        14O1py        14O1px        14O2pz        14O2py        14O2px        14O3pz
   55   14O3py        14O3px        14O4pz        14O4py        14O4px        14O1d-2       14O1d-1       14O1d0        14O1d+1       14O1d+2
   56   14O2d-2       14O2d-1       14O2d0        14O2d+1       14O2d+2       14O3d-2       14O3d-1       14O3d0        14O3d+1       14O3d+2
   57   14O1f-3       14O1f-2       14O1f-1       14O1f0        14O1f+1       14O1f+2       14O1f+3       14O2f-3       14O2f-2       14O2f-1
   58   14O2f0        14O2f+1       14O2f+2       14O2f+3       15O1s         15O2s         15O3s         15O4s         15O5s         15O1pz
   59   15O1py        15O1px        15O2pz        15O2py        15O2px        15O3pz        15O3py        15O3px        15O4pz        15O4py
   60   15O4px        15O1d-2       15O1d-1       15O1d0        15O1d+1       15O1d+2       15O2d-2       15O2d-1       15O2d0        15O2d+1
   61   15O2d+2       15O3d-2       15O3d-1       15O3d0        15O3d+1       15O3d+2       15O1f-3       15O1f-2       15O1f-1       15O1f0
   62   15O1f+1       15O1f+2       15O1f+3       15O2f-3       15O2f-2       15O2f-1       15O2f0        15O2f+1       15O2f+2       15O2f+3
   63   16O1s         16O2s         16O3s         16O4s         16O5s         16O1pz        16O1py        16O1px        16O2pz        16O2py
   64   16O2px        16O3pz        16O3py        16O3px        16O4pz        16O4py        16O4px        16O1d-2       16O1d-1       16O1d0
   65   16O1d+1       16O1d+2       16O2d-2       16O2d-1       16O2d0        16O2d+1       16O2d+2       16O3d-2       16O3d-1       16O3d0
   66   16O3d+1       16O3d+2       16O1f-3       16O1f-2       16O1f-1       16O1f0        16O1f+1       16O1f+2       16O1f+3       16O2f-3
   67   16O2f-2       16O2f-1       16O2f0        16O2f+1       16O2f+2       16O2f+3       17O1s         17O2s         17O3s         17O4s
   68   17O5s         17O1pz        17O1py        17O1px        17O2pz        17O2py        17O2px        17O3pz        17O3py        17O3px
   69   17O4pz        17O4py        17O4px        17O1d-2       17O1d-1       17O1d0        17O1d+1       17O1d+2       17O2d-2       17O2d-1
   70   17O2d0        17O2d+1       17O2d+2       17O3d-2       17O3d-1       17O3d0        17O3d+1       17O3d+2       17O1f-3       17O1f-2
   71   17O1f-1       17O1f0        17O1f+1       17O1f+2       17O1f+3       17O2f-3       17O2f-2       17O2f-1       17O2f0        17O2f+1
   72   17O2f+2       17O2f+3       18O1s         18O2s         18O3s         18O4s         18O5s         18O1pz        18O1py        18O1px
   73   18O2pz        18O2py        18O2px        18O3pz        18O3py        18O3px        18O4pz        18O4py        18O4px        18O1d-2
   74   18O1d-1       18O1d0        18O1d+1       18O1d+2       18O2d-2       18O2d-1       18O2d0        18O2d+1       18O2d+2       18O3d-2
   75   18O3d-1       18O3d0        18O3d+1       18O3d+2       18O1f-3       18O1f-2       18O1f-1       18O1f0        18O1f+1       18O1f+2
   76   18O1f+3       18O2f-3       18O2f-2       18O2f-1       18O2f0        18O2f+1       18O2f+2       18O2f+3       19O1s         19O2s
   77   19O3s         19O4s         19O5s         19O1pz        19O1py        19O1px        19O2pz        19O2py        19O2px        19O3pz
   78   19O3py        19O3px        19O4pz        19O4py        19O4px        19O1d-2       19O1d-1       19O1d0        19O1d+1       19O1d+2
   79   19O2d-2       19O2d-1       19O2d0        19O2d+1       19O2d+2       19O3d-2       19O3d-1       19O3d0        19O3d+1       19O3d+2
   80   19O1f-3       19O1f-2       19O1f-1       19O1f0        19O1f+1       19O1f+2       19O1f+3       19O2f-3       19O2f-2       19O2f-1
   81   19O2f0        19O2f+1       19O2f+2       19O2f+3       20O1s         20O2s         20O3s         20O4s         20O5s         20O1pz
   82   20O1py        20O1px        20O2pz        20O2py        20O2px        20O3pz        20O3py        20O3px        20O4pz        20O4py
   83   20O4px        20O1d-2       20O1d-1       20O1d0        20O1d+1       20O1d+2       20O2d-2       20O2d-1       20O2d0        20O2d+1
   84   20O2d+2       20O3d-2       20O3d-1       20O3d0        20O3d+1       20O3d+2       20O1f-3       20O1f-2       20O1f-1       20O1f0
   85   20O1f+1       20O1f+2       20O1f+3       20O2f-3       20O2f-2       20O2f-1       20O2f0        20O2f+1       20O2f+2       20O2f+3
   86   21O1s         21O2s         21O3s         21O4s         21O5s         21O1pz        21O1py        21O1px        21O2pz        21O2py
   87   21O2px        21O3pz        21O3py        21O3px        21O4pz        21O4py        21O4px        21O1d-2       21O1d-1       21O1d0
   88   21O1d+1       21O1d+2       21O2d-2       21O2d-1       21O2d0        21O2d+1       21O2d+2       21O3d-2       21O3d-1       21O3d0
   89   21O3d+1       21O3d+2       21O1f-3       21O1f-2       21O1f-1       21O1f0        21O1f+1       21O1f+2       21O1f+3       21O2f-3
   90   21O2f-2       21O2f-1       21O2f0        21O2f+1       21O2f+2       21O2f+3       22O1s         22O2s         22O3s         22O4s
   91   22O5s         22O1pz        22O1py        22O1px        22O2pz        22O2py        22O2px        22O3pz        22O3py        22O3px
   92   22O4pz        22O4py        22O4px        22O1d-2       22O1d-1       22O1d0        22O1d+1       22O1d+2       22O2d-2       22O2d-1
   93   22O2d0        22O2d+1       22O2d+2       22O3d-2       22O3d-1       22O3d0        22O3d+1       22O3d+2       22O1f-3       22O1f-2
   94   22O1f-1       22O1f0        22O1f+1       22O1f+2       22O1f+3       22O2f-3       22O2f-2       22O2f-1       22O2f0        22O2f+1
   95   22O2f+2       22O2f+3       23O1s         23O2s         23O3s         23O4s         23O5s         23O1pz        23O1py        23O1px
   96   23O2pz        23O2py        23O2px        23O3pz        23O3py        23O3px        23O4pz        23O4py        23O4px        23O1d-2
   97   23O1d-1       23O1d0        23O1d+1       23O1d+2       23O2d-2       23O2d-1       23O2d0        23O2d+1       23O2d+2       23O3d-2
   98   23O3d-1       23O3d0        23O3d+1       23O3d+2       23O1f-3       23O1f-2       23O1f-1       23O1f0        23O1f+1       23O1f+2
   99   23O1f+3       23O2f-3       23O2f-2       23O2f-1       23O2f0        23O2f+1       23O2f+2       23O2f+3       24O1s         24O2s
  100   24O3s         24O4s         24O5s         24O1pz        24O1py        24O1px        24O2pz        24O2py        24O2px        24O3pz
  101   24O3py        24O3px        24O4pz        24O4py        24O4px        24O1d-2       24O1d-1       24O1d0        24O1d+1       24O1d+2
  102   24O2d-2       24O2d-1       24O2d0        24O2d+1       24O2d+2       24O3d-2       24O3d-1       24O3d0        24O3d+1       24O3d+2
  103   24O1f-3       24O1f-2       24O1f-1       24O1f0        24O1f+1       24O1f+2       24O1f+3       24O2f-3       24O2f-2       24O2f-1
  104   24O2f0        24O2f+1       24O2f+2       24O2f+3

 Maximum number of basis functions per shell:   15
 Total number of basis functions:   1044


 Fitting basis set for the SCF calculation:

   1  C  def2-qzvpp-ri-jk [ 14s 10p 6d 2f 1g | 10s 8p 5d 1f 1g ]
   2  O  def2-qzvpp-ri-jk [ 14s 10p 6d 2f 1g | 10s 8p 4d 2f 1g ]
   3  Mg def2-qzvpp-ri-jk [ 16s 12p 9d 4f 1g | 13s 9p 7d 4f 1g ]
   4  O  def2-qzvpp-ri-jk [ 14s 10p 6d 2f 1g | 10s 8p 4d 2f 1g ]
   5  O  def2-qzvpp-ri-jk [ 14s 10p 6d 2f 1g | 10s 8p 4d 2f 1g ]
   6  O  def2-qzvpp-ri-jk [ 14s 10p 6d 2f 1g | 10s 8p 4d 2f 1g ]
   7  O  def2-qzvpp-ri-jk [ 14s 10p 6d 2f 1g | 10s 8p 4d 2f 1g ]
   8  O  def2-qzvpp-ri-jk [ 14s 10p 6d 2f 1g | 10s 8p 4d 2f 1g ]
   9  Mg def2-qzvpp-ri-jk [ 16s 12p 9d 4f 1g | 13s 9p 7d 4f 1g ]
  10  Mg def2-qzvpp-ri-jk [ 16s 12p 9d 4f 1g | 13s 9p 7d 4f 1g ]
  11  Mg def2-qzvpp-ri-jk [ 16s 12p 9d 4f 1g | 13s 9p 7d 4f 1g ]
  12  Mg def2-qzvpp-ri-jk [ 16s 12p 9d 4f 1g | 13s 9p 7d 4f 1g ]
  13  O  def2-qzvpp-ri-jk [ 14s 10p 6d 2f 1g | 10s 8p 4d 2f 1g ]
  14  O  def2-qzvpp-ri-jk [ 14s 10p 6d 2f 1g | 10s 8p 4d 2f 1g ]
  15  O  def2-qzvpp-ri-jk [ 14s 10p 6d 2f 1g | 10s 8p 4d 2f 1g ]
  16  O  def2-qzvpp-ri-jk [ 14s 10p 6d 2f 1g | 10s 8p 4d 2f 1g ]
  17  O  def2-qzvpp-ri-jk [ 14s 10p 6d 2f 1g | 10s 8p 4d 2f 1g ]
  18  O  def2-qzvpp-ri-jk [ 14s 10p 6d 2f 1g | 10s 8p 4d 2f 1g ]
  19  O  def2-qzvpp-ri-jk [ 14s 10p 6d 2f 1g | 10s 8p 4d 2f 1g ]
  20  O  def2-qzvpp-ri-jk [ 14s 10p 6d 2f 1g | 10s 8p 4d 2f 1g ]
  21  O  def2-qzvpp-ri-jk [ 14s 10p 6d 2f 1g | 10s 8p 4d 2f 1g ]
  22  O  def2-qzvpp-ri-jk [ 14s 10p 6d 2f 1g | 10s 8p 4d 2f 1g ]
  23  O  def2-qzvpp-ri-jk [ 14s 10p 6d 2f 1g | 10s 8p 4d 2f 1g ]
  24  O  def2-qzvpp-ri-jk [ 14s 10p 6d 2f 1g | 10s 8p 4d 2f 1g ]

 Basis functions:
            1             2             3             4             5             6             7             8             9            10
    0    1C1s          1C2s          1C3s          1C4s          1C5s          1C6s          1C7s          1C8s          1C9s          1C10s
    1    1C1pz         1C1py         1C1px         1C2pz         1C2py         1C2px         1C3pz         1C3py         1C3px         1C4pz
    2    1C4py         1C4px         1C5pz         1C5py         1C5px         1C6pz         1C6py         1C6px         1C7pz         1C7py
    3    1C7px         1C8pz         1C8py         1C8px         1C1d-2        1C1d-1        1C1d0         1C1d+1        1C1d+2        1C2d-2
    4    1C2d-1        1C2d0         1C2d+1        1C2d+2        1C3d-2        1C3d-1        1C3d0         1C3d+1        1C3d+2        1C4d-2
    5    1C4d-1        1C4d0         1C4d+1        1C4d+2        1C5d-2        1C5d-1        1C5d0         1C5d+1        1C5d+2        1C1f-3
    6    1C1f-2        1C1f-1        1C1f0         1C1f+1        1C1f+2        1C1f+3        1C1g-4        1C1g-3        1C1g-2        1C1g-1
    7    1C1g0         1C1g+1        1C1g+2        1C1g+3        1C1g+4        2O1s          2O2s          2O3s          2O4s          2O5s
    8    2O6s          2O7s          2O8s          2O9s          2O10s         2O1pz         2O1py         2O1px         2O2pz         2O2py
    9    2O2px         2O3pz         2O3py         2O3px         2O4pz         2O4py         2O4px         2O5pz         2O5py         2O5px
   10    2O6pz         2O6py         2O6px         2O7pz         2O7py         2O7px         2O8pz         2O8py         2O8px         2O1d-2
   11    2O1d-1        2O1d0         2O1d+1        2O1d+2        2O2d-2        2O2d-1        2O2d0         2O2d+1        2O2d+2        2O3d-2
   12    2O3d-1        2O3d0         2O3d+1        2O3d+2        2O4d-2        2O4d-1        2O4d0         2O4d+1        2O4d+2        2O1f-3
   13    2O1f-2        2O1f-1        2O1f0         2O1f+1        2O1f+2        2O1f+3        2O2f-3        2O2f-2        2O2f-1        2O2f0
   14    2O2f+1        2O2f+2        2O2f+3        2O1g-4        2O1g-3        2O1g-2        2O1g-1        2O1g0         2O1g+1        2O1g+2
   15    2O1g+3        2O1g+4        3Mg1s         3Mg2s         3Mg3s         3Mg4s         3Mg5s         3Mg6s         3Mg7s         3Mg8s
   16    3Mg9s         3Mg10s        3Mg11s        3Mg12s        3Mg13s        3Mg1pz        3Mg1py        3Mg1px        3Mg2pz        3Mg2py
   17    3Mg2px        3Mg3pz        3Mg3py        3Mg3px        3Mg4pz        3Mg4py        3Mg4px        3Mg5pz        3Mg5py        3Mg5px
   18    3Mg6pz        3Mg6py        3Mg6px        3Mg7pz        3Mg7py        3Mg7px        3Mg8pz        3Mg8py        3Mg8px        3Mg9pz
   19    3Mg9py        3Mg9px        3Mg1d-2       3Mg1d-1       3Mg1d0        3Mg1d+1       3Mg1d+2       3Mg2d-2       3Mg2d-1       3Mg2d0
   20    3Mg2d+1       3Mg2d+2       3Mg3d-2       3Mg3d-1       3Mg3d0        3Mg3d+1       3Mg3d+2       3Mg4d-2       3Mg4d-1       3Mg4d0
   21    3Mg4d+1       3Mg4d+2       3Mg5d-2       3Mg5d-1       3Mg5d0        3Mg5d+1       3Mg5d+2       3Mg6d-2       3Mg6d-1       3Mg6d0
   22    3Mg6d+1       3Mg6d+2       3Mg7d-2       3Mg7d-1       3Mg7d0        3Mg7d+1       3Mg7d+2       3Mg1f-3       3Mg1f-2       3Mg1f-1
   23    3Mg1f0        3Mg1f+1       3Mg1f+2       3Mg1f+3       3Mg2f-3       3Mg2f-2       3Mg2f-1       3Mg2f0        3Mg2f+1       3Mg2f+2
   24    3Mg2f+3       3Mg3f-3       3Mg3f-2       3Mg3f-1       3Mg3f0        3Mg3f+1       3Mg3f+2       3Mg3f+3       3Mg4f-3       3Mg4f-2
   25    3Mg4f-1       3Mg4f0        3Mg4f+1       3Mg4f+2       3Mg4f+3       3Mg1g-4       3Mg1g-3       3Mg1g-2       3Mg1g-1       3Mg1g0
   26    3Mg1g+1       3Mg1g+2       3Mg1g+3       3Mg1g+4       4O1s          4O2s          4O3s          4O4s          4O5s          4O6s
   27    4O7s          4O8s          4O9s          4O10s         4O1pz         4O1py         4O1px         4O2pz         4O2py         4O2px
   28    4O3pz         4O3py         4O3px         4O4pz         4O4py         4O4px         4O5pz         4O5py         4O5px         4O6pz
   29    4O6py         4O6px         4O7pz         4O7py         4O7px         4O8pz         4O8py         4O8px         4O1d-2        4O1d-1
   30    4O1d0         4O1d+1        4O1d+2        4O2d-2        4O2d-1        4O2d0         4O2d+1        4O2d+2        4O3d-2        4O3d-1
   31    4O3d0         4O3d+1        4O3d+2        4O4d-2        4O4d-1        4O4d0         4O4d+1        4O4d+2        4O1f-3        4O1f-2
   32    4O1f-1        4O1f0         4O1f+1        4O1f+2        4O1f+3        4O2f-3        4O2f-2        4O2f-1        4O2f0         4O2f+1
   33    4O2f+2        4O2f+3        4O1g-4        4O1g-3        4O1g-2        4O1g-1        4O1g0         4O1g+1        4O1g+2        4O1g+3
   34    4O1g+4        5O1s          5O2s          5O3s          5O4s          5O5s          5O6s          5O7s          5O8s          5O9s
   35    5O10s         5O1pz         5O1py         5O1px         5O2pz         5O2py         5O2px         5O3pz         5O3py         5O3px
   36    5O4pz         5O4py         5O4px         5O5pz         5O5py         5O5px         5O6pz         5O6py         5O6px         5O7pz
   37    5O7py         5O7px         5O8pz         5O8py         5O8px         5O1d-2        5O1d-1        5O1d0         5O1d+1        5O1d+2
   38    5O2d-2        5O2d-1        5O2d0         5O2d+1        5O2d+2        5O3d-2        5O3d-1        5O3d0         5O3d+1        5O3d+2
   39    5O4d-2        5O4d-1        5O4d0         5O4d+1        5O4d+2        5O1f-3        5O1f-2        5O1f-1        5O1f0         5O1f+1
   40    5O1f+2        5O1f+3        5O2f-3        5O2f-2        5O2f-1        5O2f0         5O2f+1        5O2f+2        5O2f+3        5O1g-4
   41    5O1g-3        5O1g-2        5O1g-1        5O1g0         5O1g+1        5O1g+2        5O1g+3        5O1g+4        6O1s          6O2s
   42    6O3s          6O4s          6O5s          6O6s          6O7s          6O8s          6O9s          6O10s         6O1pz         6O1py
   43    6O1px         6O2pz         6O2py         6O2px         6O3pz         6O3py         6O3px         6O4pz         6O4py         6O4px
   44    6O5pz         6O5py         6O5px         6O6pz         6O6py         6O6px         6O7pz         6O7py         6O7px         6O8pz
   45    6O8py         6O8px         6O1d-2        6O1d-1        6O1d0         6O1d+1        6O1d+2        6O2d-2        6O2d-1        6O2d0
   46    6O2d+1        6O2d+2        6O3d-2        6O3d-1        6O3d0         6O3d+1        6O3d+2        6O4d-2        6O4d-1        6O4d0
   47    6O4d+1        6O4d+2        6O1f-3        6O1f-2        6O1f-1        6O1f0         6O1f+1        6O1f+2        6O1f+3        6O2f-3
   48    6O2f-2        6O2f-1        6O2f0         6O2f+1        6O2f+2        6O2f+3        6O1g-4        6O1g-3        6O1g-2        6O1g-1
   49    6O1g0         6O1g+1        6O1g+2        6O1g+3        6O1g+4        7O1s          7O2s          7O3s          7O4s          7O5s
   50    7O6s          7O7s          7O8s          7O9s          7O10s         7O1pz         7O1py         7O1px         7O2pz         7O2py
   51    7O2px         7O3pz         7O3py         7O3px         7O4pz         7O4py         7O4px         7O5pz         7O5py         7O5px
   52    7O6pz         7O6py         7O6px         7O7pz         7O7py         7O7px         7O8pz         7O8py         7O8px         7O1d-2
   53    7O1d-1        7O1d0         7O1d+1        7O1d+2        7O2d-2        7O2d-1        7O2d0         7O2d+1        7O2d+2        7O3d-2
   54    7O3d-1        7O3d0         7O3d+1        7O3d+2        7O4d-2        7O4d-1        7O4d0         7O4d+1        7O4d+2        7O1f-3
   55    7O1f-2        7O1f-1        7O1f0         7O1f+1        7O1f+2        7O1f+3        7O2f-3        7O2f-2        7O2f-1        7O2f0
   56    7O2f+1        7O2f+2        7O2f+3        7O1g-4        7O1g-3        7O1g-2        7O1g-1        7O1g0         7O1g+1        7O1g+2
   57    7O1g+3        7O1g+4        8O1s          8O2s          8O3s          8O4s          8O5s          8O6s          8O7s          8O8s
   58    8O9s          8O10s         8O1pz         8O1py         8O1px         8O2pz         8O2py         8O2px         8O3pz         8O3py
   59    8O3px         8O4pz         8O4py         8O4px         8O5pz         8O5py         8O5px         8O6pz         8O6py         8O6px
   60    8O7pz         8O7py         8O7px         8O8pz         8O8py         8O8px         8O1d-2        8O1d-1        8O1d0         8O1d+1
   61    8O1d+2        8O2d-2        8O2d-1        8O2d0         8O2d+1        8O2d+2        8O3d-2        8O3d-1        8O3d0         8O3d+1
   62    8O3d+2        8O4d-2        8O4d-1        8O4d0         8O4d+1        8O4d+2        8O1f-3        8O1f-2        8O1f-1        8O1f0
   63    8O1f+1        8O1f+2        8O1f+3        8O2f-3        8O2f-2        8O2f-1        8O2f0         8O2f+1        8O2f+2        8O2f+3
   64    8O1g-4        8O1g-3        8O1g-2        8O1g-1        8O1g0         8O1g+1        8O1g+2        8O1g+3        8O1g+4        9Mg1s
   65    9Mg2s         9Mg3s         9Mg4s         9Mg5s         9Mg6s         9Mg7s         9Mg8s         9Mg9s         9Mg10s        9Mg11s
   66    9Mg12s        9Mg13s        9Mg1pz        9Mg1py        9Mg1px        9Mg2pz        9Mg2py        9Mg2px        9Mg3pz        9Mg3py
   67    9Mg3px        9Mg4pz        9Mg4py        9Mg4px        9Mg5pz        9Mg5py        9Mg5px        9Mg6pz        9Mg6py        9Mg6px
   68    9Mg7pz        9Mg7py        9Mg7px        9Mg8pz        9Mg8py        9Mg8px        9Mg9pz        9Mg9py        9Mg9px        9Mg1d-2
   69    9Mg1d-1       9Mg1d0        9Mg1d+1       9Mg1d+2       9Mg2d-2       9Mg2d-1       9Mg2d0        9Mg2d+1       9Mg2d+2       9Mg3d-2
   70    9Mg3d-1       9Mg3d0        9Mg3d+1       9Mg3d+2       9Mg4d-2       9Mg4d-1       9Mg4d0        9Mg4d+1       9Mg4d+2       9Mg5d-2
   71    9Mg5d-1       9Mg5d0        9Mg5d+1       9Mg5d+2       9Mg6d-2       9Mg6d-1       9Mg6d0        9Mg6d+1       9Mg6d+2       9Mg7d-2
   72    9Mg7d-1       9Mg7d0        9Mg7d+1       9Mg7d+2       9Mg1f-3       9Mg1f-2       9Mg1f-1       9Mg1f0        9Mg1f+1       9Mg1f+2
   73    9Mg1f+3       9Mg2f-3       9Mg2f-2       9Mg2f-1       9Mg2f0        9Mg2f+1       9Mg2f+2       9Mg2f+3       9Mg3f-3       9Mg3f-2
   74    9Mg3f-1       9Mg3f0        9Mg3f+1       9Mg3f+2       9Mg3f+3       9Mg4f-3       9Mg4f-2       9Mg4f-1       9Mg4f0        9Mg4f+1
   75    9Mg4f+2       9Mg4f+3       9Mg1g-4       9Mg1g-3       9Mg1g-2       9Mg1g-1       9Mg1g0        9Mg1g+1       9Mg1g+2       9Mg1g+3
   76    9Mg1g+4      10Mg1s        10Mg2s        10Mg3s        10Mg4s        10Mg5s        10Mg6s        10Mg7s        10Mg8s        10Mg9s
   77   10Mg10s       10Mg11s       10Mg12s       10Mg13s       10Mg1pz       10Mg1py       10Mg1px       10Mg2pz       10Mg2py       10Mg2px
   78   10Mg3pz       10Mg3py       10Mg3px       10Mg4pz       10Mg4py       10Mg4px       10Mg5pz       10Mg5py       10Mg5px       10Mg6pz
   79   10Mg6py       10Mg6px       10Mg7pz       10Mg7py       10Mg7px       10Mg8pz       10Mg8py       10Mg8px       10Mg9pz       10Mg9py
   80   10Mg9px       10Mg1d-2      10Mg1d-1      10Mg1d0       10Mg1d+1      10Mg1d+2      10Mg2d-2      10Mg2d-1      10Mg2d0       10Mg2d+1
   81   10Mg2d+2      10Mg3d-2      10Mg3d-1      10Mg3d0       10Mg3d+1      10Mg3d+2      10Mg4d-2      10Mg4d-1      10Mg4d0       10Mg4d+1
   82   10Mg4d+2      10Mg5d-2      10Mg5d-1      10Mg5d0       10Mg5d+1      10Mg5d+2      10Mg6d-2      10Mg6d-1      10Mg6d0       10Mg6d+1
   83   10Mg6d+2      10Mg7d-2      10Mg7d-1      10Mg7d0       10Mg7d+1      10Mg7d+2      10Mg1f-3      10Mg1f-2      10Mg1f-1      10Mg1f0
   84   10Mg1f+1      10Mg1f+2      10Mg1f+3      10Mg2f-3      10Mg2f-2      10Mg2f-1      10Mg2f0       10Mg2f+1      10Mg2f+2      10Mg2f+3
   85   10Mg3f-3      10Mg3f-2      10Mg3f-1      10Mg3f0       10Mg3f+1      10Mg3f+2      10Mg3f+3      10Mg4f-3      10Mg4f-2      10Mg4f-1
   86   10Mg4f0       10Mg4f+1      10Mg4f+2      10Mg4f+3      10Mg1g-4      10Mg1g-3      10Mg1g-2      10Mg1g-1      10Mg1g0       10Mg1g+1
   87   10Mg1g+2      10Mg1g+3      10Mg1g+4      11Mg1s        11Mg2s        11Mg3s        11Mg4s        11Mg5s        11Mg6s        11Mg7s
   88   11Mg8s        11Mg9s        11Mg10s       11Mg11s       11Mg12s       11Mg13s       11Mg1pz       11Mg1py       11Mg1px       11Mg2pz
   89   11Mg2py       11Mg2px       11Mg3pz       11Mg3py       11Mg3px       11Mg4pz       11Mg4py       11Mg4px       11Mg5pz       11Mg5py
   90   11Mg5px       11Mg6pz       11Mg6py       11Mg6px       11Mg7pz       11Mg7py       11Mg7px       11Mg8pz       11Mg8py       11Mg8px
   91   11Mg9pz       11Mg9py       11Mg9px       11Mg1d-2      11Mg1d-1      11Mg1d0       11Mg1d+1      11Mg1d+2      11Mg2d-2      11Mg2d-1
   92   11Mg2d0       11Mg2d+1      11Mg2d+2      11Mg3d-2      11Mg3d-1      11Mg3d0       11Mg3d+1      11Mg3d+2      11Mg4d-2      11Mg4d-1
   93   11Mg4d0       11Mg4d+1      11Mg4d+2      11Mg5d-2      11Mg5d-1      11Mg5d0       11Mg5d+1      11Mg5d+2      11Mg6d-2      11Mg6d-1
   94   11Mg6d0       11Mg6d+1      11Mg6d+2      11Mg7d-2      11Mg7d-1      11Mg7d0       11Mg7d+1      11Mg7d+2      11Mg1f-3      11Mg1f-2
   95   11Mg1f-1      11Mg1f0       11Mg1f+1      11Mg1f+2      11Mg1f+3      11Mg2f-3      11Mg2f-2      11Mg2f-1      11Mg2f0       11Mg2f+1
   96   11Mg2f+2      11Mg2f+3      11Mg3f-3      11Mg3f-2      11Mg3f-1      11Mg3f0       11Mg3f+1      11Mg3f+2      11Mg3f+3      11Mg4f-3
   97   11Mg4f-2      11Mg4f-1      11Mg4f0       11Mg4f+1      11Mg4f+2      11Mg4f+3      11Mg1g-4      11Mg1g-3      11Mg1g-2      11Mg1g-1
   98   11Mg1g0       11Mg1g+1      11Mg1g+2      11Mg1g+3      11Mg1g+4      12Mg1s        12Mg2s        12Mg3s        12Mg4s        12Mg5s
   99   12Mg6s        12Mg7s        12Mg8s        12Mg9s        12Mg10s       12Mg11s       12Mg12s       12Mg13s       12Mg1pz       12Mg1py
  100   12Mg1px       12Mg2pz       12Mg2py       12Mg2px       12Mg3pz       12Mg3py       12Mg3px       12Mg4pz       12Mg4py       12Mg4px
  101   12Mg5pz       12Mg5py       12Mg5px       12Mg6pz       12Mg6py       12Mg6px       12Mg7pz       12Mg7py       12Mg7px       12Mg8pz
  102   12Mg8py       12Mg8px       12Mg9pz       12Mg9py       12Mg9px       12Mg1d-2      12Mg1d-1      12Mg1d0       12Mg1d+1      12Mg1d+2
  103   12Mg2d-2      12Mg2d-1      12Mg2d0       12Mg2d+1      12Mg2d+2      12Mg3d-2      12Mg3d-1      12Mg3d0       12Mg3d+1      12Mg3d+2
  104   12Mg4d-2      12Mg4d-1      12Mg4d0       12Mg4d+1      12Mg4d+2      12Mg5d-2      12Mg5d-1      12Mg5d0       12Mg5d+1      12Mg5d+2
  105   12Mg6d-2      12Mg6d-1      12Mg6d0       12Mg6d+1      12Mg6d+2      12Mg7d-2      12Mg7d-1      12Mg7d0       12Mg7d+1      12Mg7d+2
  106   12Mg1f-3      12Mg1f-2      12Mg1f-1      12Mg1f0       12Mg1f+1      12Mg1f+2      12Mg1f+3      12Mg2f-3      12Mg2f-2      12Mg2f-1
  107   12Mg2f0       12Mg2f+1      12Mg2f+2      12Mg2f+3      12Mg3f-3      12Mg3f-2      12Mg3f-1      12Mg3f0       12Mg3f+1      12Mg3f+2
  108   12Mg3f+3      12Mg4f-3      12Mg4f-2      12Mg4f-1      12Mg4f0       12Mg4f+1      12Mg4f+2      12Mg4f+3      12Mg1g-4      12Mg1g-3
  109   12Mg1g-2      12Mg1g-1      12Mg1g0       12Mg1g+1      12Mg1g+2      12Mg1g+3      12Mg1g+4      13O1s         13O2s         13O3s
  110   13O4s         13O5s         13O6s         13O7s         13O8s         13O9s         13O10s        13O1pz        13O1py        13O1px
  111   13O2pz        13O2py        13O2px        13O3pz        13O3py        13O3px        13O4pz        13O4py        13O4px        13O5pz
  112   13O5py        13O5px        13O6pz        13O6py        13O6px        13O7pz        13O7py        13O7px        13O8pz        13O8py
  113   13O8px        13O1d-2       13O1d-1       13O1d0        13O1d+1       13O1d+2       13O2d-2       13O2d-1       13O2d0        13O2d+1
  114   13O2d+2       13O3d-2       13O3d-1       13O3d0        13O3d+1       13O3d+2       13O4d-2       13O4d-1       13O4d0        13O4d+1
  115   13O4d+2       13O1f-3       13O1f-2       13O1f-1       13O1f0        13O1f+1       13O1f+2       13O1f+3       13O2f-3       13O2f-2
  116   13O2f-1       13O2f0        13O2f+1       13O2f+2       13O2f+3       13O1g-4       13O1g-3       13O1g-2       13O1g-1       13O1g0
  117   13O1g+1       13O1g+2       13O1g+3       13O1g+4       14O1s         14O2s         14O3s         14O4s         14O5s         14O6s
  118   14O7s         14O8s         14O9s         14O10s        14O1pz        14O1py        14O1px        14O2pz        14O2py        14O2px
  119   14O3pz        14O3py        14O3px        14O4pz        14O4py        14O4px        14O5pz        14O5py        14O5px        14O6pz
  120   14O6py        14O6px        14O7pz        14O7py        14O7px        14O8pz        14O8py        14O8px        14O1d-2       14O1d-1
  121   14O1d0        14O1d+1       14O1d+2       14O2d-2       14O2d-1       14O2d0        14O2d+1       14O2d+2       14O3d-2       14O3d-1
  122   14O3d0        14O3d+1       14O3d+2       14O4d-2       14O4d-1       14O4d0        14O4d+1       14O4d+2       14O1f-3       14O1f-2
  123   14O1f-1       14O1f0        14O1f+1       14O1f+2       14O1f+3       14O2f-3       14O2f-2       14O2f-1       14O2f0        14O2f+1
  124   14O2f+2       14O2f+3       14O1g-4       14O1g-3       14O1g-2       14O1g-1       14O1g0        14O1g+1       14O1g+2       14O1g+3
  125   14O1g+4       15O1s         15O2s         15O3s         15O4s         15O5s         15O6s         15O7s         15O8s         15O9s
  126   15O10s        15O1pz        15O1py        15O1px        15O2pz        15O2py        15O2px        15O3pz        15O3py        15O3px
  127   15O4pz        15O4py        15O4px        15O5pz        15O5py        15O5px        15O6pz        15O6py        15O6px        15O7pz
  128   15O7py        15O7px        15O8pz        15O8py        15O8px        15O1d-2       15O1d-1       15O1d0        15O1d+1       15O1d+2
  129   15O2d-2       15O2d-1       15O2d0        15O2d+1       15O2d+2       15O3d-2       15O3d-1       15O3d0        15O3d+1       15O3d+2
  130   15O4d-2       15O4d-1       15O4d0        15O4d+1       15O4d+2       15O1f-3       15O1f-2       15O1f-1       15O1f0        15O1f+1
  131   15O1f+2       15O1f+3       15O2f-3       15O2f-2       15O2f-1       15O2f0        15O2f+1       15O2f+2       15O2f+3       15O1g-4
  132   15O1g-3       15O1g-2       15O1g-1       15O1g0        15O1g+1       15O1g+2       15O1g+3       15O1g+4       16O1s         16O2s
  133   16O3s         16O4s         16O5s         16O6s         16O7s         16O8s         16O9s         16O10s        16O1pz        16O1py
  134   16O1px        16O2pz        16O2py        16O2px        16O3pz        16O3py        16O3px        16O4pz        16O4py        16O4px
  135   16O5pz        16O5py        16O5px        16O6pz        16O6py        16O6px        16O7pz        16O7py        16O7px        16O8pz
  136   16O8py        16O8px        16O1d-2       16O1d-1       16O1d0        16O1d+1       16O1d+2       16O2d-2       16O2d-1       16O2d0
  137   16O2d+1       16O2d+2       16O3d-2       16O3d-1       16O3d0        16O3d+1       16O3d+2       16O4d-2       16O4d-1       16O4d0
  138   16O4d+1       16O4d+2       16O1f-3       16O1f-2       16O1f-1       16O1f0        16O1f+1       16O1f+2       16O1f+3       16O2f-3
  139   16O2f-2       16O2f-1       16O2f0        16O2f+1       16O2f+2       16O2f+3       16O1g-4       16O1g-3       16O1g-2       16O1g-1
  140   16O1g0        16O1g+1       16O1g+2       16O1g+3       16O1g+4       17O1s         17O2s         17O3s         17O4s         17O5s
  141   17O6s         17O7s         17O8s         17O9s         17O10s        17O1pz        17O1py        17O1px        17O2pz        17O2py
  142   17O2px        17O3pz        17O3py        17O3px        17O4pz        17O4py        17O4px        17O5pz        17O5py        17O5px
  143   17O6pz        17O6py        17O6px        17O7pz        17O7py        17O7px        17O8pz        17O8py        17O8px        17O1d-2
  144   17O1d-1       17O1d0        17O1d+1       17O1d+2       17O2d-2       17O2d-1       17O2d0        17O2d+1       17O2d+2       17O3d-2
  145   17O3d-1       17O3d0        17O3d+1       17O3d+2       17O4d-2       17O4d-1       17O4d0        17O4d+1       17O4d+2       17O1f-3
  146   17O1f-2       17O1f-1       17O1f0        17O1f+1       17O1f+2       17O1f+3       17O2f-3       17O2f-2       17O2f-1       17O2f0
  147   17O2f+1       17O2f+2       17O2f+3       17O1g-4       17O1g-3       17O1g-2       17O1g-1       17O1g0        17O1g+1       17O1g+2
  148   17O1g+3       17O1g+4       18O1s         18O2s         18O3s         18O4s         18O5s         18O6s         18O7s         18O8s
  149   18O9s         18O10s        18O1pz        18O1py        18O1px        18O2pz        18O2py        18O2px        18O3pz        18O3py
  150   18O3px        18O4pz        18O4py        18O4px        18O5pz        18O5py        18O5px        18O6pz        18O6py        18O6px
  151   18O7pz        18O7py        18O7px        18O8pz        18O8py        18O8px        18O1d-2       18O1d-1       18O1d0        18O1d+1
  152   18O1d+2       18O2d-2       18O2d-1       18O2d0        18O2d+1       18O2d+2       18O3d-2       18O3d-1       18O3d0        18O3d+1
  153   18O3d+2       18O4d-2       18O4d-1       18O4d0        18O4d+1       18O4d+2       18O1f-3       18O1f-2       18O1f-1       18O1f0
  154   18O1f+1       18O1f+2       18O1f+3       18O2f-3       18O2f-2       18O2f-1       18O2f0        18O2f+1       18O2f+2       18O2f+3
  155   18O1g-4       18O1g-3       18O1g-2       18O1g-1       18O1g0        18O1g+1       18O1g+2       18O1g+3       18O1g+4       19O1s
  156   19O2s         19O3s         19O4s         19O5s         19O6s         19O7s         19O8s         19O9s         19O10s        19O1pz
  157   19O1py        19O1px        19O2pz        19O2py        19O2px        19O3pz        19O3py        19O3px        19O4pz        19O4py
  158   19O4px        19O5pz        19O5py        19O5px        19O6pz        19O6py        19O6px        19O7pz        19O7py        19O7px
  159   19O8pz        19O8py        19O8px        19O1d-2       19O1d-1       19O1d0        19O1d+1       19O1d+2       19O2d-2       19O2d-1
  160   19O2d0        19O2d+1       19O2d+2       19O3d-2       19O3d-1       19O3d0        19O3d+1       19O3d+2       19O4d-2       19O4d-1
  161   19O4d0        19O4d+1       19O4d+2       19O1f-3       19O1f-2       19O1f-1       19O1f0        19O1f+1       19O1f+2       19O1f+3
  162   19O2f-3       19O2f-2       19O2f-1       19O2f0        19O2f+1       19O2f+2       19O2f+3       19O1g-4       19O1g-3       19O1g-2
  163   19O1g-1       19O1g0        19O1g+1       19O1g+2       19O1g+3       19O1g+4       20O1s         20O2s         20O3s         20O4s
  164   20O5s         20O6s         20O7s         20O8s         20O9s         20O10s        20O1pz        20O1py        20O1px        20O2pz
  165   20O2py        20O2px        20O3pz        20O3py        20O3px        20O4pz        20O4py        20O4px        20O5pz        20O5py
  166   20O5px        20O6pz        20O6py        20O6px        20O7pz        20O7py        20O7px        20O8pz        20O8py        20O8px
  167   20O1d-2       20O1d-1       20O1d0        20O1d+1       20O1d+2       20O2d-2       20O2d-1       20O2d0        20O2d+1       20O2d+2
  168   20O3d-2       20O3d-1       20O3d0        20O3d+1       20O3d+2       20O4d-2       20O4d-1       20O4d0        20O4d+1       20O4d+2
  169   20O1f-3       20O1f-2       20O1f-1       20O1f0        20O1f+1       20O1f+2       20O1f+3       20O2f-3       20O2f-2       20O2f-1
  170   20O2f0        20O2f+1       20O2f+2       20O2f+3       20O1g-4       20O1g-3       20O1g-2       20O1g-1       20O1g0        20O1g+1
  171   20O1g+2       20O1g+3       20O1g+4       21O1s         21O2s         21O3s         21O4s         21O5s         21O6s         21O7s
  172   21O8s         21O9s         21O10s        21O1pz        21O1py        21O1px        21O2pz        21O2py        21O2px        21O3pz
  173   21O3py        21O3px        21O4pz        21O4py        21O4px        21O5pz        21O5py        21O5px        21O6pz        21O6py
  174   21O6px        21O7pz        21O7py        21O7px        21O8pz        21O8py        21O8px        21O1d-2       21O1d-1       21O1d0
  175   21O1d+1       21O1d+2       21O2d-2       21O2d-1       21O2d0        21O2d+1       21O2d+2       21O3d-2       21O3d-1       21O3d0
  176   21O3d+1       21O3d+2       21O4d-2       21O4d-1       21O4d0        21O4d+1       21O4d+2       21O1f-3       21O1f-2       21O1f-1
  177   21O1f0        21O1f+1       21O1f+2       21O1f+3       21O2f-3       21O2f-2       21O2f-1       21O2f0        21O2f+1       21O2f+2
  178   21O2f+3       21O1g-4       21O1g-3       21O1g-2       21O1g-1       21O1g0        21O1g+1       21O1g+2       21O1g+3       21O1g+4
  179   22O1s         22O2s         22O3s         22O4s         22O5s         22O6s         22O7s         22O8s         22O9s         22O10s
  180   22O1pz        22O1py        22O1px        22O2pz        22O2py        22O2px        22O3pz        22O3py        22O3px        22O4pz
  181   22O4py        22O4px        22O5pz        22O5py        22O5px        22O6pz        22O6py        22O6px        22O7pz        22O7py
  182   22O7px        22O8pz        22O8py        22O8px        22O1d-2       22O1d-1       22O1d0        22O1d+1       22O1d+2       22O2d-2
  183   22O2d-1       22O2d0        22O2d+1       22O2d+2       22O3d-2       22O3d-1       22O3d0        22O3d+1       22O3d+2       22O4d-2
  184   22O4d-1       22O4d0        22O4d+1       22O4d+2       22O1f-3       22O1f-2       22O1f-1       22O1f0        22O1f+1       22O1f+2
  185   22O1f+3       22O2f-3       22O2f-2       22O2f-1       22O2f0        22O2f+1       22O2f+2       22O2f+3       22O1g-4       22O1g-3
  186   22O1g-2       22O1g-1       22O1g0        22O1g+1       22O1g+2       22O1g+3       22O1g+4       23O1s         23O2s         23O3s
  187   23O4s         23O5s         23O6s         23O7s         23O8s         23O9s         23O10s        23O1pz        23O1py        23O1px
  188   23O2pz        23O2py        23O2px        23O3pz        23O3py        23O3px        23O4pz        23O4py        23O4px        23O5pz
  189   23O5py        23O5px        23O6pz        23O6py        23O6px        23O7pz        23O7py        23O7px        23O8pz        23O8py
  190   23O8px        23O1d-2       23O1d-1       23O1d0        23O1d+1       23O1d+2       23O2d-2       23O2d-1       23O2d0        23O2d+1
  191   23O2d+2       23O3d-2       23O3d-1       23O3d0        23O3d+1       23O3d+2       23O4d-2       23O4d-1       23O4d0        23O4d+1
  192   23O4d+2       23O1f-3       23O1f-2       23O1f-1       23O1f0        23O1f+1       23O1f+2       23O1f+3       23O2f-3       23O2f-2
  193   23O2f-1       23O2f0        23O2f+1       23O2f+2       23O2f+3       23O1g-4       23O1g-3       23O1g-2       23O1g-1       23O1g0
  194   23O1g+1       23O1g+2       23O1g+3       23O1g+4       24O1s         24O2s         24O3s         24O4s         24O5s         24O6s
  195   24O7s         24O8s         24O9s         24O10s        24O1pz        24O1py        24O1px        24O2pz        24O2py        24O2px
  196   24O3pz        24O3py        24O3px        24O4pz        24O4py        24O4px        24O5pz        24O5py        24O5px        24O6pz
  197   24O6py        24O6px        24O7pz        24O7py        24O7px        24O8pz        24O8py        24O8px        24O1d-2       24O1d-1
  198   24O1d0        24O1d+1       24O1d+2       24O2d-2       24O2d-1       24O2d0        24O2d+1       24O2d+2       24O3d-2       24O3d-1
  199   24O3d0        24O3d+1       24O3d+2       24O4d-2       24O4d-1       24O4d0        24O4d+1       24O4d+2       24O1f-3       24O1f-2
  200   24O1f-1       24O1f0        24O1f+1       24O1f+2       24O1f+3       24O2f-3       24O2f-2       24O2f-1       24O2f0        24O2f+1
  201   24O2f+2       24O2f+3       24O1g-4       24O1g-3       24O1g-2       24O1g-1       24O1g0        24O1g+1       24O1g+2       24O1g+3
  202   24O1g+4

 Maximum number of basis functions per shell:   35
 Total number of basis functions:   2021


 Fitting basis set for the correlation calculation:

   1  C  aug-cc-pvtz-ri [ 9s 7p 6d 4f 2g | 9s 7p 6d 4f 2g ]
   2  O  aug-cc-pvtz-ri [ 9s 7p 6d 4f 2g | 9s 7p 6d 4f 2g ]
   3  Mg cc-pvtz-ri [ 10s 8p 7d 5f 2g | 10s 8p 7d 5f 2g ]
   4  O  aug-cc-pvtz-ri [ 9s 7p 6d 4f 2g | 9s 7p 6d 4f 2g ]
   5  O  aug-cc-pvtz-ri [ 9s 7p 6d 4f 2g | 9s 7p 6d 4f 2g ]
   6  O  aug-cc-pvtz-ri [ 9s 7p 6d 4f 2g | 9s 7p 6d 4f 2g ]
   7  O  aug-cc-pvtz-ri [ 9s 7p 6d 4f 2g | 9s 7p 6d 4f 2g ]
   8  O  aug-cc-pvtz-ri [ 9s 7p 6d 4f 2g | 9s 7p 6d 4f 2g ]
   9  Mg cc-pvtz-ri [ 10s 8p 7d 5f 2g | 10s 8p 7d 5f 2g ]
  10  Mg cc-pvtz-ri [ 10s 8p 7d 5f 2g | 10s 8p 7d 5f 2g ]
  11  Mg cc-pvtz-ri [ 10s 8p 7d 5f 2g | 10s 8p 7d 5f 2g ]
  12  Mg cc-pvtz-ri [ 10s 8p 7d 5f 2g | 10s 8p 7d 5f 2g ]
  13  O  aug-cc-pvtz-ri [ 9s 7p 6d 4f 2g | 9s 7p 6d 4f 2g ]
  14  O  aug-cc-pvtz-ri [ 9s 7p 6d 4f 2g | 9s 7p 6d 4f 2g ]
  15  O  aug-cc-pvtz-ri [ 9s 7p 6d 4f 2g | 9s 7p 6d 4f 2g ]
  16  O  aug-cc-pvtz-ri [ 9s 7p 6d 4f 2g | 9s 7p 6d 4f 2g ]
  17  O  aug-cc-pvtz-ri [ 9s 7p 6d 4f 2g | 9s 7p 6d 4f 2g ]
  18  O  aug-cc-pvtz-ri [ 9s 7p 6d 4f 2g | 9s 7p 6d 4f 2g ]
  19  O  aug-cc-pvtz-ri [ 9s 7p 6d 4f 2g | 9s 7p 6d 4f 2g ]
  20  O  aug-cc-pvtz-ri [ 9s 7p 6d 4f 2g | 9s 7p 6d 4f 2g ]
  21  O  aug-cc-pvtz-ri [ 9s 7p 6d 4f 2g | 9s 7p 6d 4f 2g ]
  22  O  aug-cc-pvtz-ri [ 9s 7p 6d 4f 2g | 9s 7p 6d 4f 2g ]
  23  O  aug-cc-pvtz-ri [ 9s 7p 6d 4f 2g | 9s 7p 6d 4f 2g ]
  24  O  aug-cc-pvtz-ri [ 9s 7p 6d 4f 2g | 9s 7p 6d 4f 2g ]

 Basis functions:
            1             2             3             4             5             6             7             8             9            10
    0    1C1s          1C2s          1C3s          1C4s          1C5s          1C6s          1C7s          1C8s          1C9s          1C1pz
    1    1C1py         1C1px         1C2pz         1C2py         1C2px         1C3pz         1C3py         1C3px         1C4pz         1C4py
    2    1C4px         1C5pz         1C5py         1C5px         1C6pz         1C6py         1C6px         1C7pz         1C7py         1C7px
    3    1C1d-2        1C1d-1        1C1d0         1C1d+1        1C1d+2        1C2d-2        1C2d-1        1C2d0         1C2d+1        1C2d+2
    4    1C3d-2        1C3d-1        1C3d0         1C3d+1        1C3d+2        1C4d-2        1C4d-1        1C4d0         1C4d+1        1C4d+2
    5    1C5d-2        1C5d-1        1C5d0         1C5d+1        1C5d+2        1C6d-2        1C6d-1        1C6d0         1C6d+1        1C6d+2
    6    1C1f-3        1C1f-2        1C1f-1        1C1f0         1C1f+1        1C1f+2        1C1f+3        1C2f-3        1C2f-2        1C2f-1
    7    1C2f0         1C2f+1        1C2f+2        1C2f+3        1C3f-3        1C3f-2        1C3f-1        1C3f0         1C3f+1        1C3f+2
    8    1C3f+3        1C4f-3        1C4f-2        1C4f-1        1C4f0         1C4f+1        1C4f+2        1C4f+3        1C1g-4        1C1g-3
    9    1C1g-2        1C1g-1        1C1g0         1C1g+1        1C1g+2        1C1g+3        1C1g+4        1C2g-4        1C2g-3        1C2g-2
   10    1C2g-1        1C2g0         1C2g+1        1C2g+2        1C2g+3        1C2g+4        2O1s          2O2s          2O3s          2O4s
   11    2O5s          2O6s          2O7s          2O8s          2O9s          2O1pz         2O1py         2O1px         2O2pz         2O2py
   12    2O2px         2O3pz         2O3py         2O3px         2O4pz         2O4py         2O4px         2O5pz         2O5py         2O5px
   13    2O6pz         2O6py         2O6px         2O7pz         2O7py         2O7px         2O1d-2        2O1d-1        2O1d0         2O1d+1
   14    2O1d+2        2O2d-2        2O2d-1        2O2d0         2O2d+1        2O2d+2        2O3d-2        2O3d-1        2O3d0         2O3d+1
   15    2O3d+2        2O4d-2        2O4d-1        2O4d0         2O4d+1        2O4d+2        2O5d-2        2O5d-1        2O5d0         2O5d+1
   16    2O5d+2        2O6d-2        2O6d-1        2O6d0         2O6d+1        2O6d+2        2O1f-3        2O1f-2        2O1f-1        2O1f0
   17    2O1f+1        2O1f+2        2O1f+3        2O2f-3        2O2f-2        2O2f-1        2O2f0         2O2f+1        2O2f+2        2O2f+3
   18    2O3f-3        2O3f-2        2O3f-1        2O3f0         2O3f+1        2O3f+2        2O3f+3        2O4f-3        2O4f-2        2O4f-1
   19    2O4f0         2O4f+1        2O4f+2        2O4f+3        2O1g-4        2O1g-3        2O1g-2        2O1g-1        2O1g0         2O1g+1
   20    2O1g+2        2O1g+3        2O1g+4        2O2g-4        2O2g-3        2O2g-2        2O2g-1        2O2g0         2O2g+1        2O2g+2
   21    2O2g+3        2O2g+4        3Mg1s         3Mg2s         3Mg3s         3Mg4s         3Mg5s         3Mg6s         3Mg7s         3Mg8s
   22    3Mg9s         3Mg10s        3Mg1pz        3Mg1py        3Mg1px        3Mg2pz        3Mg2py        3Mg2px        3Mg3pz        3Mg3py
   23    3Mg3px        3Mg4pz        3Mg4py        3Mg4px        3Mg5pz        3Mg5py        3Mg5px        3Mg6pz        3Mg6py        3Mg6px
   24    3Mg7pz        3Mg7py        3Mg7px        3Mg8pz        3Mg8py        3Mg8px        3Mg1d-2       3Mg1d-1       3Mg1d0        3Mg1d+1
   25    3Mg1d+2       3Mg2d-2       3Mg2d-1       3Mg2d0        3Mg2d+1       3Mg2d+2       3Mg3d-2       3Mg3d-1       3Mg3d0        3Mg3d+1
   26    3Mg3d+2       3Mg4d-2       3Mg4d-1       3Mg4d0        3Mg4d+1       3Mg4d+2       3Mg5d-2       3Mg5d-1       3Mg5d0        3Mg5d+1
   27    3Mg5d+2       3Mg6d-2       3Mg6d-1       3Mg6d0        3Mg6d+1       3Mg6d+2       3Mg7d-2       3Mg7d-1       3Mg7d0        3Mg7d+1
   28    3Mg7d+2       3Mg1f-3       3Mg1f-2       3Mg1f-1       3Mg1f0        3Mg1f+1       3Mg1f+2       3Mg1f+3       3Mg2f-3       3Mg2f-2
   29    3Mg2f-1       3Mg2f0        3Mg2f+1       3Mg2f+2       3Mg2f+3       3Mg3f-3       3Mg3f-2       3Mg3f-1       3Mg3f0        3Mg3f+1
   30    3Mg3f+2       3Mg3f+3       3Mg4f-3       3Mg4f-2       3Mg4f-1       3Mg4f0        3Mg4f+1       3Mg4f+2       3Mg4f+3       3Mg5f-3
   31    3Mg5f-2       3Mg5f-1       3Mg5f0        3Mg5f+1       3Mg5f+2       3Mg5f+3       3Mg1g-4       3Mg1g-3       3Mg1g-2       3Mg1g-1
   32    3Mg1g0        3Mg1g+1       3Mg1g+2       3Mg1g+3       3Mg1g+4       3Mg2g-4       3Mg2g-3       3Mg2g-2       3Mg2g-1       3Mg2g0
   33    3Mg2g+1       3Mg2g+2       3Mg2g+3       3Mg2g+4       4O1s          4O2s          4O3s          4O4s          4O5s          4O6s
   34    4O7s          4O8s          4O9s          4O1pz         4O1py         4O1px         4O2pz         4O2py         4O2px         4O3pz
   35    4O3py         4O3px         4O4pz         4O4py         4O4px         4O5pz         4O5py         4O5px         4O6pz         4O6py
   36    4O6px         4O7pz         4O7py         4O7px         4O1d-2        4O1d-1        4O1d0         4O1d+1        4O1d+2        4O2d-2
   37    4O2d-1        4O2d0         4O2d+1        4O2d+2        4O3d-2        4O3d-1        4O3d0         4O3d+1        4O3d+2        4O4d-2
   38    4O4d-1        4O4d0         4O4d+1        4O4d+2        4O5d-2        4O5d-1        4O5d0         4O5d+1        4O5d+2        4O6d-2
   39    4O6d-1        4O6d0         4O6d+1        4O6d+2        4O1f-3        4O1f-2        4O1f-1        4O1f0         4O1f+1        4O1f+2
   40    4O1f+3        4O2f-3        4O2f-2        4O2f-1        4O2f0         4O2f+1        4O2f+2        4O2f+3        4O3f-3        4O3f-2
   41    4O3f-1        4O3f0         4O3f+1        4O3f+2        4O3f+3        4O4f-3        4O4f-2        4O4f-1        4O4f0         4O4f+1
   42    4O4f+2        4O4f+3        4O1g-4        4O1g-3        4O1g-2        4O1g-1        4O1g0         4O1g+1        4O1g+2        4O1g+3
   43    4O1g+4        4O2g-4        4O2g-3        4O2g-2        4O2g-1        4O2g0         4O2g+1        4O2g+2        4O2g+3        4O2g+4
   44    5O1s          5O2s          5O3s          5O4s          5O5s          5O6s          5O7s          5O8s          5O9s          5O1pz
   45    5O1py         5O1px         5O2pz         5O2py         5O2px         5O3pz         5O3py         5O3px         5O4pz         5O4py
   46    5O4px         5O5pz         5O5py         5O5px         5O6pz         5O6py         5O6px         5O7pz         5O7py         5O7px
   47    5O1d-2        5O1d-1        5O1d0         5O1d+1        5O1d+2        5O2d-2        5O2d-1        5O2d0         5O2d+1        5O2d+2
   48    5O3d-2        5O3d-1        5O3d0         5O3d+1        5O3d+2        5O4d-2        5O4d-1        5O4d0         5O4d+1        5O4d+2
   49    5O5d-2        5O5d-1        5O5d0         5O5d+1        5O5d+2        5O6d-2        5O6d-1        5O6d0         5O6d+1        5O6d+2
   50    5O1f-3        5O1f-2        5O1f-1        5O1f0         5O1f+1        5O1f+2        5O1f+3        5O2f-3        5O2f-2        5O2f-1
   51    5O2f0         5O2f+1        5O2f+2        5O2f+3        5O3f-3        5O3f-2        5O3f-1        5O3f0         5O3f+1        5O3f+2
   52    5O3f+3        5O4f-3        5O4f-2        5O4f-1        5O4f0         5O4f+1        5O4f+2        5O4f+3        5O1g-4        5O1g-3
   53    5O1g-2        5O1g-1        5O1g0         5O1g+1        5O1g+2        5O1g+3        5O1g+4        5O2g-4        5O2g-3        5O2g-2
   54    5O2g-1        5O2g0         5O2g+1        5O2g+2        5O2g+3        5O2g+4        6O1s          6O2s          6O3s          6O4s
   55    6O5s          6O6s          6O7s          6O8s          6O9s          6O1pz         6O1py         6O1px         6O2pz         6O2py
   56    6O2px         6O3pz         6O3py         6O3px         6O4pz         6O4py         6O4px         6O5pz         6O5py         6O5px
   57    6O6pz         6O6py         6O6px         6O7pz         6O7py         6O7px         6O1d-2        6O1d-1        6O1d0         6O1d+1
   58    6O1d+2        6O2d-2        6O2d-1        6O2d0         6O2d+1        6O2d+2        6O3d-2        6O3d-1        6O3d0         6O3d+1
   59    6O3d+2        6O4d-2        6O4d-1        6O4d0         6O4d+1        6O4d+2        6O5d-2        6O5d-1        6O5d0         6O5d+1
   60    6O5d+2        6O6d-2        6O6d-1        6O6d0         6O6d+1        6O6d+2        6O1f-3        6O1f-2        6O1f-1        6O1f0
   61    6O1f+1        6O1f+2        6O1f+3        6O2f-3        6O2f-2        6O2f-1        6O2f0         6O2f+1        6O2f+2        6O2f+3
   62    6O3f-3        6O3f-2        6O3f-1        6O3f0         6O3f+1        6O3f+2        6O3f+3        6O4f-3        6O4f-2        6O4f-1
   63    6O4f0         6O4f+1        6O4f+2        6O4f+3        6O1g-4        6O1g-3        6O1g-2        6O1g-1        6O1g0         6O1g+1
   64    6O1g+2        6O1g+3        6O1g+4        6O2g-4        6O2g-3        6O2g-2        6O2g-1        6O2g0         6O2g+1        6O2g+2
   65    6O2g+3        6O2g+4        7O1s          7O2s          7O3s          7O4s          7O5s          7O6s          7O7s          7O8s
   66    7O9s          7O1pz         7O1py         7O1px         7O2pz         7O2py         7O2px         7O3pz         7O3py         7O3px
   67    7O4pz         7O4py         7O4px         7O5pz         7O5py         7O5px         7O6pz         7O6py         7O6px         7O7pz
   68    7O7py         7O7px         7O1d-2        7O1d-1        7O1d0         7O1d+1        7O1d+2        7O2d-2        7O2d-1        7O2d0
   69    7O2d+1        7O2d+2        7O3d-2        7O3d-1        7O3d0         7O3d+1        7O3d+2        7O4d-2        7O4d-1        7O4d0
   70    7O4d+1        7O4d+2        7O5d-2        7O5d-1        7O5d0         7O5d+1        7O5d+2        7O6d-2        7O6d-1        7O6d0
   71    7O6d+1        7O6d+2        7O1f-3        7O1f-2        7O1f-1        7O1f0         7O1f+1        7O1f+2        7O1f+3        7O2f-3
   72    7O2f-2        7O2f-1        7O2f0         7O2f+1        7O2f+2        7O2f+3        7O3f-3        7O3f-2        7O3f-1        7O3f0
   73    7O3f+1        7O3f+2        7O3f+3        7O4f-3        7O4f-2        7O4f-1        7O4f0         7O4f+1        7O4f+2        7O4f+3
   74    7O1g-4        7O1g-3        7O1g-2        7O1g-1        7O1g0         7O1g+1        7O1g+2        7O1g+3        7O1g+4        7O2g-4
   75    7O2g-3        7O2g-2        7O2g-1        7O2g0         7O2g+1        7O2g+2        7O2g+3        7O2g+4        8O1s          8O2s
   76    8O3s          8O4s          8O5s          8O6s          8O7s          8O8s          8O9s          8O1pz         8O1py         8O1px
   77    8O2pz         8O2py         8O2px         8O3pz         8O3py         8O3px         8O4pz         8O4py         8O4px         8O5pz
   78    8O5py         8O5px         8O6pz         8O6py         8O6px         8O7pz         8O7py         8O7px         8O1d-2        8O1d-1
   79    8O1d0         8O1d+1        8O1d+2        8O2d-2        8O2d-1        8O2d0         8O2d+1        8O2d+2        8O3d-2        8O3d-1
   80    8O3d0         8O3d+1        8O3d+2        8O4d-2        8O4d-1        8O4d0         8O4d+1        8O4d+2        8O5d-2        8O5d-1
   81    8O5d0         8O5d+1        8O5d+2        8O6d-2        8O6d-1        8O6d0         8O6d+1        8O6d+2        8O1f-3        8O1f-2
   82    8O1f-1        8O1f0         8O1f+1        8O1f+2        8O1f+3        8O2f-3        8O2f-2        8O2f-1        8O2f0         8O2f+1
   83    8O2f+2        8O2f+3        8O3f-3        8O3f-2        8O3f-1        8O3f0         8O3f+1        8O3f+2        8O3f+3        8O4f-3
   84    8O4f-2        8O4f-1        8O4f0         8O4f+1        8O4f+2        8O4f+3        8O1g-4        8O1g-3        8O1g-2        8O1g-1
   85    8O1g0         8O1g+1        8O1g+2        8O1g+3        8O1g+4        8O2g-4        8O2g-3        8O2g-2        8O2g-1        8O2g0
   86    8O2g+1        8O2g+2        8O2g+3        8O2g+4        9Mg1s         9Mg2s         9Mg3s         9Mg4s         9Mg5s         9Mg6s
   87    9Mg7s         9Mg8s         9Mg9s         9Mg10s        9Mg1pz        9Mg1py        9Mg1px        9Mg2pz        9Mg2py        9Mg2px
   88    9Mg3pz        9Mg3py        9Mg3px        9Mg4pz        9Mg4py        9Mg4px        9Mg5pz        9Mg5py        9Mg5px        9Mg6pz
   89    9Mg6py        9Mg6px        9Mg7pz        9Mg7py        9Mg7px        9Mg8pz        9Mg8py        9Mg8px        9Mg1d-2       9Mg1d-1
   90    9Mg1d0        9Mg1d+1       9Mg1d+2       9Mg2d-2       9Mg2d-1       9Mg2d0        9Mg2d+1       9Mg2d+2       9Mg3d-2       9Mg3d-1
   91    9Mg3d0        9Mg3d+1       9Mg3d+2       9Mg4d-2       9Mg4d-1       9Mg4d0        9Mg4d+1       9Mg4d+2       9Mg5d-2       9Mg5d-1
   92    9Mg5d0        9Mg5d+1       9Mg5d+2       9Mg6d-2       9Mg6d-1       9Mg6d0        9Mg6d+1       9Mg6d+2       9Mg7d-2       9Mg7d-1
   93    9Mg7d0        9Mg7d+1       9Mg7d+2       9Mg1f-3       9Mg1f-2       9Mg1f-1       9Mg1f0        9Mg1f+1       9Mg1f+2       9Mg1f+3
   94    9Mg2f-3       9Mg2f-2       9Mg2f-1       9Mg2f0        9Mg2f+1       9Mg2f+2       9Mg2f+3       9Mg3f-3       9Mg3f-2       9Mg3f-1
   95    9Mg3f0        9Mg3f+1       9Mg3f+2       9Mg3f+3       9Mg4f-3       9Mg4f-2       9Mg4f-1       9Mg4f0        9Mg4f+1       9Mg4f+2
   96    9Mg4f+3       9Mg5f-3       9Mg5f-2       9Mg5f-1       9Mg5f0        9Mg5f+1       9Mg5f+2       9Mg5f+3       9Mg1g-4       9Mg1g-3
   97    9Mg1g-2       9Mg1g-1       9Mg1g0        9Mg1g+1       9Mg1g+2       9Mg1g+3       9Mg1g+4       9Mg2g-4       9Mg2g-3       9Mg2g-2
   98    9Mg2g-1       9Mg2g0        9Mg2g+1       9Mg2g+2       9Mg2g+3       9Mg2g+4      10Mg1s        10Mg2s        10Mg3s        10Mg4s
   99   10Mg5s        10Mg6s        10Mg7s        10Mg8s        10Mg9s        10Mg10s       10Mg1pz       10Mg1py       10Mg1px       10Mg2pz
  100   10Mg2py       10Mg2px       10Mg3pz       10Mg3py       10Mg3px       10Mg4pz       10Mg4py       10Mg4px       10Mg5pz       10Mg5py
  101   10Mg5px       10Mg6pz       10Mg6py       10Mg6px       10Mg7pz       10Mg7py       10Mg7px       10Mg8pz       10Mg8py       10Mg8px
  102   10Mg1d-2      10Mg1d-1      10Mg1d0       10Mg1d+1      10Mg1d+2      10Mg2d-2      10Mg2d-1      10Mg2d0       10Mg2d+1      10Mg2d+2
  103   10Mg3d-2      10Mg3d-1      10Mg3d0       10Mg3d+1      10Mg3d+2      10Mg4d-2      10Mg4d-1      10Mg4d0       10Mg4d+1      10Mg4d+2
  104   10Mg5d-2      10Mg5d-1      10Mg5d0       10Mg5d+1      10Mg5d+2      10Mg6d-2      10Mg6d-1      10Mg6d0       10Mg6d+1      10Mg6d+2
  105   10Mg7d-2      10Mg7d-1      10Mg7d0       10Mg7d+1      10Mg7d+2      10Mg1f-3      10Mg1f-2      10Mg1f-1      10Mg1f0       10Mg1f+1
  106   10Mg1f+2      10Mg1f+3      10Mg2f-3      10Mg2f-2      10Mg2f-1      10Mg2f0       10Mg2f+1      10Mg2f+2      10Mg2f+3      10Mg3f-3
  107   10Mg3f-2      10Mg3f-1      10Mg3f0       10Mg3f+1      10Mg3f+2      10Mg3f+3      10Mg4f-3      10Mg4f-2      10Mg4f-1      10Mg4f0
  108   10Mg4f+1      10Mg4f+2      10Mg4f+3      10Mg5f-3      10Mg5f-2      10Mg5f-1      10Mg5f0       10Mg5f+1      10Mg5f+2      10Mg5f+3
  109   10Mg1g-4      10Mg1g-3      10Mg1g-2      10Mg1g-1      10Mg1g0       10Mg1g+1      10Mg1g+2      10Mg1g+3      10Mg1g+4      10Mg2g-4
  110   10Mg2g-3      10Mg2g-2      10Mg2g-1      10Mg2g0       10Mg2g+1      10Mg2g+2      10Mg2g+3      10Mg2g+4      11Mg1s        11Mg2s
  111   11Mg3s        11Mg4s        11Mg5s        11Mg6s        11Mg7s        11Mg8s        11Mg9s        11Mg10s       11Mg1pz       11Mg1py
  112   11Mg1px       11Mg2pz       11Mg2py       11Mg2px       11Mg3pz       11Mg3py       11Mg3px       11Mg4pz       11Mg4py       11Mg4px
  113   11Mg5pz       11Mg5py       11Mg5px       11Mg6pz       11Mg6py       11Mg6px       11Mg7pz       11Mg7py       11Mg7px       11Mg8pz
  114   11Mg8py       11Mg8px       11Mg1d-2      11Mg1d-1      11Mg1d0       11Mg1d+1      11Mg1d+2      11Mg2d-2      11Mg2d-1      11Mg2d0
  115   11Mg2d+1      11Mg2d+2      11Mg3d-2      11Mg3d-1      11Mg3d0       11Mg3d+1      11Mg3d+2      11Mg4d-2      11Mg4d-1      11Mg4d0
  116   11Mg4d+1      11Mg4d+2      11Mg5d-2      11Mg5d-1      11Mg5d0       11Mg5d+1      11Mg5d+2      11Mg6d-2      11Mg6d-1      11Mg6d0
  117   11Mg6d+1      11Mg6d+2      11Mg7d-2      11Mg7d-1      11Mg7d0       11Mg7d+1      11Mg7d+2      11Mg1f-3      11Mg1f-2      11Mg1f-1
  118   11Mg1f0       11Mg1f+1      11Mg1f+2      11Mg1f+3      11Mg2f-3      11Mg2f-2      11Mg2f-1      11Mg2f0       11Mg2f+1      11Mg2f+2
  119   11Mg2f+3      11Mg3f-3      11Mg3f-2      11Mg3f-1      11Mg3f0       11Mg3f+1      11Mg3f+2      11Mg3f+3      11Mg4f-3      11Mg4f-2
  120   11Mg4f-1      11Mg4f0       11Mg4f+1      11Mg4f+2      11Mg4f+3      11Mg5f-3      11Mg5f-2      11Mg5f-1      11Mg5f0       11Mg5f+1
  121   11Mg5f+2      11Mg5f+3      11Mg1g-4      11Mg1g-3      11Mg1g-2      11Mg1g-1      11Mg1g0       11Mg1g+1      11Mg1g+2      11Mg1g+3
  122   11Mg1g+4      11Mg2g-4      11Mg2g-3      11Mg2g-2      11Mg2g-1      11Mg2g0       11Mg2g+1      11Mg2g+2      11Mg2g+3      11Mg2g+4
  123   12Mg1s        12Mg2s        12Mg3s        12Mg4s        12Mg5s        12Mg6s        12Mg7s        12Mg8s        12Mg9s        12Mg10s
  124   12Mg1pz       12Mg1py       12Mg1px       12Mg2pz       12Mg2py       12Mg2px       12Mg3pz       12Mg3py       12Mg3px       12Mg4pz
  125   12Mg4py       12Mg4px       12Mg5pz       12Mg5py       12Mg5px       12Mg6pz       12Mg6py       12Mg6px       12Mg7pz       12Mg7py
  126   12Mg7px       12Mg8pz       12Mg8py       12Mg8px       12Mg1d-2      12Mg1d-1      12Mg1d0       12Mg1d+1      12Mg1d+2      12Mg2d-2
  127   12Mg2d-1      12Mg2d0       12Mg2d+1      12Mg2d+2      12Mg3d-2      12Mg3d-1      12Mg3d0       12Mg3d+1      12Mg3d+2      12Mg4d-2
  128   12Mg4d-1      12Mg4d0       12Mg4d+1      12Mg4d+2      12Mg5d-2      12Mg5d-1      12Mg5d0       12Mg5d+1      12Mg5d+2      12Mg6d-2
  129   12Mg6d-1      12Mg6d0       12Mg6d+1      12Mg6d+2      12Mg7d-2      12Mg7d-1      12Mg7d0       12Mg7d+1      12Mg7d+2      12Mg1f-3
  130   12Mg1f-2      12Mg1f-1      12Mg1f0       12Mg1f+1      12Mg1f+2      12Mg1f+3      12Mg2f-3      12Mg2f-2      12Mg2f-1      12Mg2f0
  131   12Mg2f+1      12Mg2f+2      12Mg2f+3      12Mg3f-3      12Mg3f-2      12Mg3f-1      12Mg3f0       12Mg3f+1      12Mg3f+2      12Mg3f+3
  132   12Mg4f-3      12Mg4f-2      12Mg4f-1      12Mg4f0       12Mg4f+1      12Mg4f+2      12Mg4f+3      12Mg5f-3      12Mg5f-2      12Mg5f-1
  133   12Mg5f0       12Mg5f+1      12Mg5f+2      12Mg5f+3      12Mg1g-4      12Mg1g-3      12Mg1g-2      12Mg1g-1      12Mg1g0       12Mg1g+1
  134   12Mg1g+2      12Mg1g+3      12Mg1g+4      12Mg2g-4      12Mg2g-3      12Mg2g-2      12Mg2g-1      12Mg2g0       12Mg2g+1      12Mg2g+2
  135   12Mg2g+3      12Mg2g+4      13O1s         13O2s         13O3s         13O4s         13O5s         13O6s         13O7s         13O8s
  136   13O9s         13O1pz        13O1py        13O1px        13O2pz        13O2py        13O2px        13O3pz        13O3py        13O3px
  137   13O4pz        13O4py        13O4px        13O5pz        13O5py        13O5px        13O6pz        13O6py        13O6px        13O7pz
  138   13O7py        13O7px        13O1d-2       13O1d-1       13O1d0        13O1d+1       13O1d+2       13O2d-2       13O2d-1       13O2d0
  139   13O2d+1       13O2d+2       13O3d-2       13O3d-1       13O3d0        13O3d+1       13O3d+2       13O4d-2       13O4d-1       13O4d0
  140   13O4d+1       13O4d+2       13O5d-2       13O5d-1       13O5d0        13O5d+1       13O5d+2       13O6d-2       13O6d-1       13O6d0
  141   13O6d+1       13O6d+2       13O1f-3       13O1f-2       13O1f-1       13O1f0        13O1f+1       13O1f+2       13O1f+3       13O2f-3
[...]
 Number of atoms in PAO BP domain:            1       1.1         3
 Number of atomic orbitals:                 126     139.6       160
 Number of PAOs:                            119     132.6       153

 Prescreening pairs...
 CPU time [min]:     0.048                   Wall time [min]:     0.010

 Occupied LMO domain definition with Boughton-Pulay completeness:    0.9999900000

   MO  Natoms  Completeness   Atoms
    1   11     0.999996        1    2    3    4    5    6    7    9   10   11   12
    2   12     1.000000        1    2    3    4    5    6    7    8    9   10   11   12
    3   12     0.999999        1    2    3    4    5    6    7    8    9   10   11   12
    4   11     0.999996        1    2    3    4    5    6    7    9   10   11   12
    5   10     0.999996        1    2    3    4    5    6    9   10   11   12

 Executing the Boughton-Pulay algorithm...
  with occ MO completeness:    0.9850000000

   MO  Natoms  Completeness   Atoms
    1    2     0.999979        1    2
    2    1     0.995324        1
    3    1     0.991572        2
    4    2     0.999979        1    2
    5    2     0.999979        1    2
 CPU time [min]:     0.064                   Wall time [min]:     0.012

 Dimensions of the occupied LMO domains:  Minimum / Average / Maximum

 Number of atoms in domain:                  10      11.2        12
 Number of atomic orbitals:                 400     455.2       492

 Total number of pairs:   10
 Number of distant pairs: 0 (0.0%)
 Sum of multipole based pair energies:      0.0000000000

 CPU time [min]:     0.068                   Wall time [min]:     0.013
 Number of strong pairs: 10 (100.0%)
       20.36 MB memory is used for domain independent quantities

 Calculating the contribution of occupied LMOs...
    using local fitting domains

 MO:     1
 Number of atoms in domain:      12
 Number of atomic orbitals:     492
 Number of atoms for local DF:   12
 Number of fitting functions:  1352 (100.00%)
 Number of occupied orbitals:     5
 Number of virtual  orbitals:   485
 Number of Cholesky vectors:      7
 MP2 energy in ED [au]:          -0.083355852866
 Number of occupied LNOs:         5 (100.00%)
 Number of virtual  LNOs:        70  (14.43%)
 Number of Cholesky vectors:      6
 MP2 energy in LIS [au]:         -0.083322794698
 Correction for frozen LNO [au]: -0.000033058168     (0.040%)
 Number of NAFs:                177  (13.09%)
 CPU time [min]:     0.966                   Wall time [min]:     0.174


 Direct DF-CCSD(T) calculation

 Convergence criterion:  1.0E-05

 Number of occupied/virtual/auxiliary orbitals:     5    70   177
     67.76 MB is the minimal memory requirement for (T)
     40.54 MB is the minimal memory requirement for CCSD

 MP2 correlation energy [au]:       -0.362981012212

 LMP2 domain correlation energy contribution [au]:       -0.083322004939

 CPU time [min]:     0.975                   Wall time [min]:     0.175


 Starting CCSD iterations...

                     Residual norm       Correlation Energy
 Iteration  1        0.216556847208       -0.349230563685
 Iteration  2        0.072524915047       -0.361837657446
 Iteration  3        0.025133310882       -0.365450483531
 Iteration  4        0.007557547214       -0.364877141091
 Iteration  5        0.002306652528       -0.364959622687
 Iteration  6        0.000468420542       -0.364974529409
 Iteration  7        0.000116586721       -0.364972805816
 Iteration  8        0.000031946286       -0.364973261710

 CCSD iteration has converged in  8 steps.
      131.85 MB memory was utilized by CCSD

 T1 diagnostic:      1.911E-02            D1 diagnostic:      4.027E-02

 T1 contribution [au]:                         0.000000000000
 CCSD correlation energy [au]:                -0.081028653330

 CPU time [min]:     1.043                   Wall time [min]:     0.184

 Calculation of (T) correction...

 Laplace threshold, nquadmin:  1.00E-03   4
 Number of quadrature points:    4

       69.18 MB memory is utilized for (T)

 0%       25%       50%       75%       100%
 |---------|---------|---------|---------|

 (T) correction [au]:                   -0.004327752063
 CCSD(T) correlation energy [au]:       -0.085356405393

 CPU time [min]:     1.088                   Wall time [min]:     0.190

 MO:     2
 Number of atoms in domain:      12
 Number of atomic orbitals:     492
 Number of atoms for local DF:   12
 Number of fitting functions:  1352 (100.00%)
 Number of occupied orbitals:     5
 Number of virtual  orbitals:   485
 Number of Cholesky vectors:      7
 MP2 energy in ED [au]:          -0.049264726443
 Number of occupied LNOs:         5 (100.00%)
 Number of virtual  LNOs:        69  (14.23%)
 Number of Cholesky vectors:      6
 MP2 energy in LIS [au]:         -0.049209693832
 Correction for frozen LNO [au]: -0.000055032611     (0.112%)
 Number of NAFs:                191  (14.13%)
 CPU time [min]:     1.933                   Wall time [min]:     0.344


 Direct DF-CCSD(T) calculation

 Convergence criterion:  1.0E-05

 Number of occupied/virtual/auxiliary orbitals:     5    69   191
     67.47 MB is the minimal memory requirement for (T)
     40.98 MB is the minimal memory requirement for CCSD

 MP2 correlation energy [au]:       -0.351997117540

 LMP2 domain correlation energy contribution [au]:       -0.049203561950

 CPU time [min]:     1.941                   Wall time [min]:     0.345


 Starting CCSD iterations...

                     Residual norm       Correlation Energy
 Iteration  1        0.209845066770       -0.338699465490
 Iteration  2        0.073608138977       -0.351365910275
 Iteration  3        0.025533858578       -0.355008496769
 Iteration  4        0.007154401200       -0.354448459354
 Iteration  5        0.002300866970       -0.354537231175
 Iteration  6        0.000467938672       -0.354546389387
 Iteration  7        0.000114980568       -0.354545570650
 Iteration  8        0.000031792392       -0.354546054406

 CCSD iteration has converged in  8 steps.
      127.02 MB memory was utilized by CCSD

 T1 diagnostic:      2.001E-02            D1 diagnostic:      4.200E-02

 T1 contribution [au]:                         0.000000000000
 CCSD correlation energy [au]:                -0.057581037313

 CPU time [min]:     2.011                   Wall time [min]:     0.354

 Calculation of (T) correction...

 Laplace threshold, nquadmin:  1.00E-03   4
 Number of quadrature points:    4

       68.24 MB memory is utilized for (T)

 0%       25%       50%       75%       100%
 |---------|---------|---------|---------|

 (T) correction [au]:                   -0.002570496184
 CCSD(T) correlation energy [au]:       -0.060151533498

 CPU time [min]:     2.055                   Wall time [min]:     0.360

 MO:     3
 Number of atoms in domain:      12
 Number of atomic orbitals:     492
 Number of atoms for local DF:   12
 Number of fitting functions:  1352 (100.00%)
 Number of occupied orbitals:     5
 Number of virtual  orbitals:   485
 Number of Cholesky vectors:      7
 MP2 energy in ED [au]:          -0.065167231596
 Number of occupied LNOs:         5 (100.00%)
 Number of virtual  LNOs:        66  (13.61%)
 Number of Cholesky vectors:      6
 MP2 energy in LIS [au]:         -0.065148259888
 Correction for frozen LNO [au]: -0.000018971708     (0.029%)
 Number of NAFs:                173  (12.80%)
 CPU time [min]:     2.884                   Wall time [min]:     0.512


 Direct DF-CCSD(T) calculation

 Convergence criterion:  1.0E-05

 Number of occupied/virtual/auxiliary orbitals:     5    66   173
     60.91 MB is the minimal memory requirement for (T)
     38.59 MB is the minimal memory requirement for CCSD

 MP2 correlation energy [au]:       -0.361917752029

 LMP2 domain correlation energy contribution [au]:       -0.065146752157

 CPU time [min]:     2.893                   Wall time [min]:     0.513


 Starting CCSD iterations...

                     Residual norm       Correlation Energy
 Iteration  1        0.216319089261       -0.348255509861
 Iteration  2        0.071960617118       -0.360785429162
 Iteration  3        0.024910373375       -0.364336562049
 Iteration  4        0.007406336989       -0.363781050296
 Iteration  5        0.002239703325       -0.363864303530
 Iteration  6        0.000451654091       -0.363880589744
 Iteration  7        0.000110742610       -0.363879486153
 Iteration  8        0.000030449013       -0.363879927212

 CCSD iteration has converged in  8 steps.
      110.50 MB memory was utilized by CCSD

 T1 diagnostic:      1.858E-02            D1 diagnostic:      3.889E-02

 T1 contribution [au]:                         0.000000000000
 CCSD correlation energy [au]:                -0.065428908820

 CPU time [min]:     2.951                   Wall time [min]:     0.521

 Calculation of (T) correction...

 Laplace threshold, nquadmin:  1.00E-03   4
 Number of quadrature points:    4

       61.91 MB memory is utilized for (T)

 0%       25%       50%       75%       100%
 |---------|---------|---------|---------|

 (T) correction [au]:                   -0.002546401624
 CCSD(T) correlation energy [au]:       -0.067975310444

 CPU time [min]:     2.983                   Wall time [min]:     0.525

 MO:     4
 Number of atoms in domain:      12
 Number of atomic orbitals:     492
 Number of atoms for local DF:   12
 Number of fitting functions:  1352 (100.00%)
 Number of occupied orbitals:     5
 Number of virtual  orbitals:   485
 Number of Cholesky vectors:      7
 MP2 energy in ED [au]:          -0.083355859164
 Number of occupied LNOs:         5 (100.00%)
 Number of virtual  LNOs:        70  (14.43%)
 Number of Cholesky vectors:      6
 MP2 energy in LIS [au]:         -0.083322808323
 Correction for frozen LNO [au]: -0.000033050841     (0.040%)
 Number of NAFs:                177  (13.09%)
 CPU time [min]:     3.845                   Wall time [min]:     0.682


 Direct DF-CCSD(T) calculation

 Convergence criterion:  1.0E-05

 Number of occupied/virtual/auxiliary orbitals:     5    70   177
     67.76 MB is the minimal memory requirement for (T)
     40.54 MB is the minimal memory requirement for CCSD

 MP2 correlation energy [au]:       -0.362978020522

 LMP2 domain correlation energy contribution [au]:       -0.083322076311

 CPU time [min]:     3.854                   Wall time [min]:     0.683


 Starting CCSD iterations...

                     Residual norm       Correlation Energy
 Iteration  1        0.216553930035       -0.349226979010
 Iteration  2        0.072528409957       -0.361833953498
 Iteration  3        0.025133589326       -0.365446652248
 Iteration  4        0.007556922796       -0.364873300047
 Iteration  5        0.002306344561       -0.364955787509
 Iteration  6        0.000468287019       -0.364970712436
 Iteration  7        0.000116537885       -0.364968999709
 Iteration  8        0.000031928179       -0.364969456271

 CCSD iteration has converged in  8 steps.
      131.85 MB memory was utilized by CCSD

 T1 diagnostic:      1.911E-02            D1 diagnostic:      4.027E-02

 T1 contribution [au]:                         0.000000000000
 CCSD correlation energy [au]:                -0.081028741538

 CPU time [min]:     3.922                   Wall time [min]:     0.691

 Calculation of (T) correction...

 Laplace threshold, nquadmin:  1.00E-03   4
 Number of quadrature points:    4

       69.18 MB memory is utilized for (T)

 0%       25%       50%       75%       100%
 |---------|---------|---------|---------|

 (T) correction [au]:                   -0.004327751496
 CCSD(T) correlation energy [au]:       -0.085356493033

 CPU time [min]:     3.964                   Wall time [min]:     0.697

 MO:     5
 Number of atoms in domain:      12
 Number of atomic orbitals:     492
 Number of atoms for local DF:   12
 Number of fitting functions:  1352 (100.00%)
 Number of occupied orbitals:     5
 Number of virtual  orbitals:   485
 Number of Cholesky vectors:      7
 MP2 energy in ED [au]:          -0.083355910552
 Number of occupied LNOs:         5 (100.00%)
 Number of virtual  LNOs:        70  (14.43%)
 Number of Cholesky vectors:      6
 MP2 energy in LIS [au]:         -0.083322912637
 Correction for frozen LNO [au]: -0.000032997915     (0.040%)
 Number of NAFs:                177  (13.09%)
 CPU time [min]:     4.830                   Wall time [min]:     0.855


 Direct DF-CCSD(T) calculation

 Convergence criterion:  1.0E-05

 Number of occupied/virtual/auxiliary orbitals:     5    70   177
     67.76 MB is the minimal memory requirement for (T)
     40.54 MB is the minimal memory requirement for CCSD

 MP2 correlation energy [au]:       -0.362980193809

 LMP2 domain correlation energy contribution [au]:       -0.083322153489

 CPU time [min]:     4.838                   Wall time [min]:     0.856


 Starting CCSD iterations...

                     Residual norm       Correlation Energy
 Iteration  1        0.216556132448       -0.349229323795
 Iteration  2        0.072524106003       -0.361836490776
 Iteration  3        0.025133422737       -0.365449045746
 Iteration  4        0.007557654245       -0.364875732684
 Iteration  5        0.002306380224       -0.364958204347
 Iteration  6        0.000468339850       -0.364973102094
 Iteration  7        0.000116555730       -0.364971385974
 Iteration  8        0.000031940260       -0.364971841824

 CCSD iteration has converged in  8 steps.
      131.85 MB memory was utilized by CCSD

 T1 diagnostic:      1.911E-02            D1 diagnostic:      4.027E-02

 T1 contribution [au]:                         0.000000000000
 CCSD correlation energy [au]:                -0.081028786147

 CPU time [min]:     4.907                   Wall time [min]:     0.865

 Calculation of (T) correction...

 Laplace threshold, nquadmin:  1.00E-03   4
 Number of quadrature points:    4

       69.18 MB memory is utilized for (T)

 0%       25%       50%       75%       100%
 |---------|---------|---------|---------|

 (T) correction [au]:                   -0.004327758237
 CCSD(T) correlation energy [au]:       -0.085356544384

 CPU time [min]:     4.950                   Wall time [min]:     0.870

 **********************************************************************
 Dimensions of the extended domains:    Minimum / Average / Maximum

 Number of atoms in domain:                  12      12.0        12
 Number of atomic orbitals:                 492     492.0       492
 Number of fitting functions:              1352    1352.0      1352
 Number of occupied localized MOs:            5       5.0         5
 Number of PAOs:                            485     485.0       485
 Number of occupied LNOs:                     5       5.0         5
 Number of virtual  LNOs:                    66      69.0        70
 Number of NAFs:                            173     179.0       191

 **********************************************************************
 Distant (and weak) pair contributions, corrections

 Sum of pair energies [au]:                     0.000000000000    (0.000%)
 Sum of energy corrections [au]:               -0.000173111242    (0.047%)
 Pair energies + LNO corrections [au]:         -0.000173111242
 Sum of LMP2 contributions [au]:               -0.364499580621

 **********************************************************************
  Time of manipulations in the EDs:      max CPU/Wall [s]  all CPU/Wall [min]

 PD construction & multipole pair E       3.89     0.58     0.06     0.01
 Construct MO basis of the ED             1.34     0.17     0.11     0.01
 (mu,nu|P) evaluation & trf 2 (ai|P)      7.27     0.92     0.54     0.07
 Evaluate MP2 energy of the ED            1.05     0.13     0.09     0.01
 Transformations to the LNO basis         1.03     0.13     0.08     0.01
 Build W_PQ (Jai or Jpi part)             0.19     0.02     0.02     0.00
 Evaluate MP2 energy of the LIS           0.03     0.00     0.00     0.00
 (mu,nu|P) evaluation & trf 2 J(abQ)     41.02     8.04     3.32     0.66
 Total of the above for all EDs          51.93     9.43     4.16     0.77

 **********************************************************************
 Maximum memory requirement [MB]:

 PD construction & multipole pair E         53.8
 AO integral evaluation in the EDs         213.4
 (mu,nu|P) evaluation & trf 2 (aI|P)       304.7
 Evaluate MP2 energy in the EDs            146.6
 Transformation to the LNO basis            57.3
 (mu,nu|P) to Jab transformation           257.7
 Evaluate MP2 energy in the LIS             85.2
 Minimum requirement for LIS CCSD           41.0
 Actually allocated  for LIS CCSD          131.8
 Minimum requirement for LIS (T)            67.8
 Actually allocated  for LIS (T)            69.2

 ======================================================================
 ======================================================================



 ======================================================================
 ======================================================================

 Final local CC results:

 Minimum number of correlated electrons:        10       (100.0%)
 Maximum number of correlated electrons:        10       (100.0%)
 Average number of correlated electrons:        10.0     (100.0%)
 Minimum number of correlated orbitals:         71       (  6.8%)
 Maximum number of correlated orbitals:         75       (  7.2%)
 Average number of correlated orbitals:         74.0     (  7.1%)

 CPU time for integral calculations [min]:                  1.305
 Wall time for integral calculations [min]:                 0.178

 CPU time for SCF calculation [min]:                        6.597
 Wall time for SCF calculation [min]:                       0.917

 CPU time for orbital localization [min]:                   0.122
 Wall time for orbital localization [min]:                  0.098

 CPU time for integral transformations [min]:               4.378
 Wall time for integral transformations [min]:              0.797

 Reference energy [au]:                                  -112.778705079361

 LMP2 correlation energy [au]:                             -0.364499580621
 Total LMP2 energy [au]:                                 -113.143204659983

 Total MP2 correction for dropped NAFs [au]:               -0.000009920533
 Total MP2 correction [au]:                                -0.000183031775

 CPU time for CCSD calculations [min]:                      0.368
 Total CPU time for CCSD [min]:                            12.771
 Wall time for CCSD calculations [min]:                     0.047
 Total wall time for CCSD [min]:                            2.036

 CCSD correlation energy [au]:                             -0.366096127148
 Total CCSD energy [au]:                                 -113.144801206510
 CCSD correlation energy + 0.5 MP2 corrections [au]:       -0.366187643036
 Total LNO-CCSD energy with MP2 corrections [au]:        -113.144892722397

 CPU time for (T) corrections [min]:                        0.207
 Total CPU time for CCSD(T) [min]:                         12.978
 Wall time for (T) corrections [min]:                       0.027
 Total wall time for CCSD(T) [min]:                         2.063

 Total (T) correlation energy contribution [au]:           -0.018100159604
 Total (T) correlation energy+0.5 MP2 correction [au]:     -0.018191675491
 CCSD(T) correlation energy [au]:                          -0.384196286752
 Total CCSD(T) energy [au]:                              -113.162901366114
 CCSD(T) correlation energy + MP2 corrections [au]:        -0.384379318527
 Total LNO-CCSD(T) energy with MP2 corrections [au]:     -113.163084397889

 ======================================================================
 ======================================================================

 ************************ 2024-11-25 16:12:53 *************************
                      Normal termination of mrcc.
 **********************************************************************
