 **********************************************************************
                          MRCC program system
 **********************************************************************
 
                              Written by
     Mihaly Kallay, Peter R. Nagy, David Mester, Laszlo Gyevi-Nagy,
        Jozsef Csoka, P. Bernat Szabo, Zoltan Rolik, Gyula Samu,
     Jozsef Csontos, Bence Hegely, Adam Ganyecz, Istvan Ladjanszki,
       Lorant Szegedy, Bence Ladoczki, Klara Petrov, Mate Farkas,
                    Pal D. Mezei, and Reka A. Horvath
 
        Department of Physical Chemistry and Materials Science
            Budapest University of Technology and Economics
                  Budapest P.O.Box 91, H-1521 Hungary
 
                              www.mrcc.hu
 
                     Release date: August 28, 2023

 ************************ 2024-11-25 16:08:47 *************************
 Executing minp...

 Reading input from MINP...
 
 Input file:
 
calc=LNO-CCSD(T)
scftype=rhf
verbosity=3
mem=200000MB
symm=off
unit=angs
scfiguess=small
scfmaxit=1000
scfalg=locfit1
bpedo=0.99999
ccmaxit=400
usedisk=0
ccsdalg=dfdirect
ccsdthreads=4
ccsdmkl=thr
ptthreads=4
lcorthr=tight
basis_sm=special
def2-SVP
def2-SVP
def2-SVP
def2-SVP
def2-SVP
def2-SVP
def2-SVP
def2-SVP
def2-SVP
def2-SVP
def2-SVP
def2-SVP
def2-SVP
def2-SVP
def2-SVP
def2-SVP
def2-SVP
def2-SVP
def2-SVP
def2-SVP
def2-SVP
def2-SVP
def2-SVP
def2-SVP
no-basis-set
no-basis-set
no-basis-set
no-basis-set
no-basis-set
no-basis-set
no-basis-set
no-basis-set
no-basis-set
no-basis-set
no-basis-set
no-basis-set
no-basis-set
no-basis-set
no-basis-set
no-basis-set
no-basis-set
no-basis-set
no-basis-set
no-basis-set
no-basis-set
no-basis-set
no-basis-set
no-basis-set
no-basis-set
no-basis-set
no-basis-set
no-basis-set
no-basis-set
no-basis-set
no-basis-set
no-basis-set
no-basis-set
no-basis-set
no-basis-set
no-basis-set
no-basis-set
no-basis-set
no-basis-set
no-basis-set
no-basis-set
no-basis-set
no-basis-set
no-basis-set
no-basis-set
no-basis-set
no-basis-set
no-basis-set
no-basis-set
no-basis-set
no-basis-set
no-basis-set
no-basis-set
no-basis-set
no-basis-set
no-basis-set
no-basis-set
no-basis-set
no-basis-set
no-basis-set
no-basis-set
no-basis-set
no-basis-set
no-basis-set
no-basis-set
no-basis-set
no-basis-set
no-basis-set
no-basis-set
no-basis-set
no-basis-set
no-basis-set
no-basis-set
no-basis-set
no-basis-set
no-basis-set
no-basis-set
no-basis-set
no-basis-set
no-basis-set
no-basis-set
no-basis-set
no-basis-set
no-basis-set
no-basis-set
no-basis-set
no-basis-set
no-basis-set
no-basis-set
no-basis-set
no-basis-set
no-basis-set
no-basis-set
no-basis-set
no-basis-set
no-basis-set
no-basis-set


basis=special
aug-cc-pVDZ
aug-cc-pVDZ
cc-pVDZ
aug-cc-pVDZ
aug-cc-pVDZ
aug-cc-pVDZ
aug-cc-pVDZ
aug-cc-pVDZ
cc-pVDZ
cc-pVDZ
cc-pVDZ
cc-pVDZ
aug-cc-pVDZ
aug-cc-pVDZ
aug-cc-pVDZ
aug-cc-pVDZ
aug-cc-pVDZ
aug-cc-pVDZ
aug-cc-pVDZ
aug-cc-pVDZ
aug-cc-pVDZ
aug-cc-pVDZ
aug-cc-pVDZ
aug-cc-pVDZ
no-basis-set
no-basis-set
no-basis-set
no-basis-set
no-basis-set
no-basis-set
no-basis-set
no-basis-set
no-basis-set
no-basis-set
no-basis-set
no-basis-set
no-basis-set
no-basis-set
no-basis-set
no-basis-set
no-basis-set
no-basis-set
no-basis-set
no-basis-set
no-basis-set
no-basis-set
no-basis-set
no-basis-set
no-basis-set
no-basis-set
no-basis-set
no-basis-set
no-basis-set
no-basis-set
no-basis-set
no-basis-set
no-basis-set
no-basis-set
no-basis-set
no-basis-set
no-basis-set
no-basis-set
no-basis-set
no-basis-set
no-basis-set
no-basis-set
no-basis-set
no-basis-set
no-basis-set
no-basis-set
no-basis-set
no-basis-set
no-basis-set
no-basis-set
no-basis-set
no-basis-set
no-basis-set
no-basis-set
no-basis-set
no-basis-set
no-basis-set
no-basis-set
no-basis-set
no-basis-set
no-basis-set
no-basis-set
no-basis-set
no-basis-set
no-basis-set
no-basis-set
no-basis-set
no-basis-set
no-basis-set
no-basis-set
no-basis-set
no-basis-set
no-basis-set
no-basis-set
no-basis-set
no-basis-set
no-basis-set
no-basis-set
no-basis-set
no-basis-set
no-basis-set
no-basis-set
no-basis-set
no-basis-set
no-basis-set
no-basis-set
no-basis-set
no-basis-set
no-basis-set
no-basis-set
no-basis-set
no-basis-set
no-basis-set
no-basis-set
no-basis-set
no-basis-set
no-basis-set


dfbasis_scf=special
def2-QZVPP-RI-JK
def2-QZVPP-RI-JK
def2-QZVPP-RI-JK
def2-QZVPP-RI-JK
def2-QZVPP-RI-JK
def2-QZVPP-RI-JK
def2-QZVPP-RI-JK
def2-QZVPP-RI-JK
def2-QZVPP-RI-JK
def2-QZVPP-RI-JK
def2-QZVPP-RI-JK
def2-QZVPP-RI-JK
def2-QZVPP-RI-JK
def2-QZVPP-RI-JK
def2-QZVPP-RI-JK
def2-QZVPP-RI-JK
def2-QZVPP-RI-JK
def2-QZVPP-RI-JK
def2-QZVPP-RI-JK
def2-QZVPP-RI-JK
def2-QZVPP-RI-JK
def2-QZVPP-RI-JK
def2-QZVPP-RI-JK
def2-QZVPP-RI-JK
no-basis-set
no-basis-set
no-basis-set
no-basis-set
no-basis-set
no-basis-set
no-basis-set
no-basis-set
no-basis-set
no-basis-set
no-basis-set
no-basis-set
no-basis-set
no-basis-set
no-basis-set
no-basis-set
no-basis-set
no-basis-set
no-basis-set
no-basis-set
no-basis-set
no-basis-set
no-basis-set
no-basis-set
no-basis-set
no-basis-set
no-basis-set
no-basis-set
no-basis-set
no-basis-set
no-basis-set
no-basis-set
no-basis-set
no-basis-set
no-basis-set
no-basis-set
no-basis-set
no-basis-set
no-basis-set
no-basis-set
no-basis-set
no-basis-set
no-basis-set
no-basis-set
no-basis-set
no-basis-set
no-basis-set
no-basis-set
no-basis-set
no-basis-set
no-basis-set
no-basis-set
no-basis-set
no-basis-set
no-basis-set
no-basis-set
no-basis-set
no-basis-set
no-basis-set
no-basis-set
no-basis-set
no-basis-set
no-basis-set
no-basis-set
no-basis-set
no-basis-set
no-basis-set
no-basis-set
no-basis-set
no-basis-set
no-basis-set
no-basis-set
no-basis-set
no-basis-set
no-basis-set
no-basis-set
no-basis-set
no-basis-set
no-basis-set
no-basis-set
no-basis-set
no-basis-set
no-basis-set
no-basis-set
no-basis-set
no-basis-set
no-basis-set
no-basis-set
no-basis-set
no-basis-set
no-basis-set
no-basis-set
no-basis-set
no-basis-set
no-basis-set
no-basis-set
no-basis-set


dfbasis_cor=special
aug-cc-pVDZ-RI
aug-cc-pVDZ-RI
cc-pVDZ-RI
aug-cc-pVDZ-RI
aug-cc-pVDZ-RI
aug-cc-pVDZ-RI
aug-cc-pVDZ-RI
aug-cc-pVDZ-RI
cc-pVDZ-RI
cc-pVDZ-RI
cc-pVDZ-RI
cc-pVDZ-RI
aug-cc-pVDZ-RI
aug-cc-pVDZ-RI
aug-cc-pVDZ-RI
aug-cc-pVDZ-RI
aug-cc-pVDZ-RI
aug-cc-pVDZ-RI
aug-cc-pVDZ-RI
aug-cc-pVDZ-RI
aug-cc-pVDZ-RI
aug-cc-pVDZ-RI
aug-cc-pVDZ-RI
aug-cc-pVDZ-RI
no-basis-set
no-basis-set
no-basis-set
no-basis-set
no-basis-set
no-basis-set
no-basis-set
no-basis-set
no-basis-set
no-basis-set
no-basis-set
no-basis-set
no-basis-set
no-basis-set
no-basis-set
no-basis-set
no-basis-set
no-basis-set
no-basis-set
no-basis-set
no-basis-set
no-basis-set
no-basis-set
no-basis-set
no-basis-set
no-basis-set
no-basis-set
no-basis-set
no-basis-set
no-basis-set
no-basis-set
no-basis-set
no-basis-set
no-basis-set
no-basis-set
no-basis-set
no-basis-set
no-basis-set
no-basis-set
no-basis-set
no-basis-set
no-basis-set
no-basis-set
no-basis-set
no-basis-set
no-basis-set
no-basis-set
no-basis-set
no-basis-set
no-basis-set
no-basis-set
no-basis-set
no-basis-set
no-basis-set
no-basis-set
no-basis-set
no-basis-set
no-basis-set
no-basis-set
no-basis-set
no-basis-set
no-basis-set
no-basis-set
no-basis-set
no-basis-set
no-basis-set
no-basis-set
no-basis-set
no-basis-set
no-basis-set
no-basis-set
no-basis-set
no-basis-set
no-basis-set
no-basis-set
no-basis-set
no-basis-set
no-basis-set
no-basis-set
no-basis-set
no-basis-set
no-basis-set
no-basis-set
no-basis-set
no-basis-set
no-basis-set
no-basis-set
no-basis-set
no-basis-set
no-basis-set
no-basis-set
no-basis-set
no-basis-set
no-basis-set
no-basis-set
no-basis-set
no-basis-set


ecp=special
none
none
none
none
none
none
none
none
none
none
none
none
none
none
none
none
none
none
none
none
none
none
none
none
capECP
capECP
capECP
capECP
capECP
capECP
capECP
capECP
capECP
capECP
capECP
capECP
capECP
capECP
capECP
capECP
capECP
capECP
capECP
capECP
capECP
capECP
capECP
capECP
capECP
capECP
capECP
capECP
capECP
capECP
capECP
capECP
capECP
capECP
capECP
capECP
capECP
capECP
capECP
capECP
capECP
capECP
capECP
capECP
capECP
capECP
capECP
capECP
capECP
capECP
capECP
capECP
capECP
capECP
capECP
capECP
capECP
capECP
capECP
capECP
capECP
capECP
capECP
capECP
capECP
capECP
capECP
capECP
capECP
capECP
capECP
capECP
capECP
capECP
capECP
capECP
capECP
capECP
capECP
capECP
capECP
capECP
capECP
capECP
capECP
capECP
capECP
capECP
capECP
capECP
capECP
capECP
capECP
capECP
capECP
capECP
capECP

charge=-24
mult=1
core=44
geom=xyz
121

C                       0.00000000000    0.00000000000    2.44102235837
O                       0.00000000000    0.00000000000    3.58784217303
Mg                      0.00000000000    0.00000000000    0.00000000000
O                      -2.12018425659    0.00000000000    0.00567209089
O                       0.00000000000    2.12018425659    0.00567209089
O                       2.12018425659    0.00000000000    0.00567209089
O                       0.00000000000   -2.12018425659    0.00567209089
O                       0.00000000000    0.00000000000   -2.14129966123
Mg                     -2.11144262254    2.11144262254   -0.04367284424
Mg                      2.11144262254    2.11144262254   -0.04367284424
Mg                      2.11144262254   -2.11144262254   -0.04367284424
Mg                     -2.11144262254   -2.11144262254   -0.04367284424
O                      -2.11070451449    2.11070451449   -2.14923989662
O                       2.11070451449    2.11070451449   -2.14923989662
O                       2.11070451449   -2.11070451449   -2.14923989662
O                      -2.11070451449   -2.11070451449   -2.14923989662
O                      -4.22049352791    2.11209139723    0.00772802266
O                      -2.11209139723    4.22049352791    0.00772802266
O                       2.11209139723    4.22049352791    0.00772802266
O                       4.22049352791    2.11209139723    0.00772802266
O                       4.22049352791   -2.11209139723    0.00772802266
O                       2.11209139723   -4.22049352791    0.00772802266
O                      -2.11209139723   -4.22049352791    0.00772802266
O                      -4.22049352791   -2.11209139723    0.00772802266
Mg                     -2.10705287155    0.00000000000   -2.14155206950
Mg                      0.00000000000    2.10705287155   -2.14155206950
Mg                      2.10705287155    0.00000000000   -2.14155206950
Mg                      0.00000000000   -2.10705287155   -2.14155206950
Mg                     -4.22049352791    0.00000000000   -0.04269731856
Mg                      0.00000000000    4.22049352791   -0.04269731856
Mg                      4.22049352791    0.00000000000   -0.04269731856
Mg                      0.00000000000   -4.22049352791   -0.04269731856
Mg                      0.00000000000    0.00000000000   -4.26789528527
Mg                     -4.22049352791    2.10973412517   -2.14445912302
Mg                     -2.10973412517    4.22049352791   -2.14445912302
Mg                      2.10973412517    4.22049352791   -2.14445912302
Mg                      4.22049352791    2.10973412517   -2.14445912302
Mg                      4.22049352791   -2.10973412517   -2.14445912302
Mg                      2.10973412517   -4.22049352791   -2.14445912302
Mg                     -2.10973412517   -4.22049352791   -2.14445912302
Mg                     -4.22049352791   -2.10973412517   -2.14445912302
Mg                     -2.11024676395    2.11024676395   -4.26789528527
Mg                      2.11024676395    2.11024676395   -4.26789528527
Mg                      2.11024676395   -2.11024676395   -4.26789528527
Mg                     -2.11024676395   -2.11024676395   -4.26789528527
Mg                     -4.22049352791    4.22049352791   -0.03992370948
Mg                      4.22049352791    4.22049352791   -0.03992370948
Mg                      4.22049352791   -4.22049352791   -0.03992370948
Mg                     -4.22049352791   -4.22049352791   -0.03992370948
Mg                     -4.22049352791    0.00000000000   -4.26789528527
Mg                      0.00000000000    4.22049352791   -4.26789528527
Mg                      4.22049352791    0.00000000000   -4.26789528527
Mg                      0.00000000000   -4.22049352791   -4.26789528527
Mg                     -6.32954443328    2.11144262254   -0.04367284424
Mg                     -2.11144262254    6.32954443328   -0.04367284424
Mg                      2.11144262254    6.32954443328   -0.04367284424
Mg                      6.32954443328    2.11144262254   -0.04367284424
Mg                      6.32954443328   -2.11144262254   -0.04367284424
Mg                      2.11144262254   -6.32954443328   -0.04367284424
Mg                     -2.11144262254   -6.32954443328   -0.04367284424
Mg                     -6.32954443328   -2.11144262254   -0.04367284424
Mg                     -6.33393418427    0.00000000000   -2.14155206950
Mg                      0.00000000000    6.33393418427   -2.14155206950
Mg                      6.33393418427    0.00000000000   -2.14155206950
Mg                      0.00000000000   -6.33393418427   -2.14155206950
Mg                     -2.11024676395    0.00000000000   -6.37814204923
Mg                      0.00000000000    2.11024676395   -6.37814204923
Mg                      2.11024676395    0.00000000000   -6.37814204923
Mg                      0.00000000000   -2.11024676395   -6.37814204923
Mg                     -4.22049352791    4.22049352791   -4.26789528527
Mg                      4.22049352791    4.22049352791   -4.26789528527
Mg                      4.22049352791   -4.22049352791   -4.26789528527
Mg                     -4.22049352791   -4.22049352791   -4.26789528527
Mg                     -6.33125293065    4.22049352791   -2.14445912302
Mg                     -4.22049352791    6.33125293065   -2.14445912302
Mg                      4.22049352791    6.33125293065   -2.14445912302
Mg                      6.33125293065    4.22049352791   -2.14445912302
Mg                      6.33125293065   -4.22049352791   -2.14445912302
Mg                      4.22049352791   -6.33125293065   -2.14445912302
Mg                     -4.22049352791   -6.33125293065   -2.14445912302
Mg                     -6.33125293065   -4.22049352791   -2.14445912302
Mg                     -6.33074029186    2.11024676395   -4.26789528527
Mg                     -2.11024676395    6.33074029186   -4.26789528527
Mg                      2.11024676395    6.33074029186   -4.26789528527
Mg                      6.33074029186    2.11024676395   -4.26789528527
Mg                      6.33074029186   -2.11024676395   -4.26789528527
Mg                      2.11024676395   -6.33074029186   -4.26789528527
Mg                     -2.11024676395   -6.33074029186   -4.26789528527
Mg                     -6.33074029186   -2.11024676395   -4.26789528527
Mg                     -4.22049352791    2.11024676395   -6.37814204923
Mg                     -2.11024676395    4.22049352791   -6.37814204923
Mg                      2.11024676395    4.22049352791   -6.37814204923
Mg                      4.22049352791    2.11024676395   -6.37814204923
Mg                      4.22049352791   -2.11024676395   -6.37814204923
Mg                      2.11024676395   -4.22049352791   -6.37814204923
Mg                     -2.11024676395   -4.22049352791   -6.37814204923
Mg                     -4.22049352791   -2.11024676395   -6.37814204923
Mg                     -8.44098705582    0.00000000000    0.00000000000
Mg                      0.00000000000    8.44098705582    0.00000000000
Mg                      8.44098705582    0.00000000000    0.00000000000
Mg                      0.00000000000   -8.44098705582    0.00000000000
Mg                     -6.32954443328    6.32954443328   -0.04367284424
Mg                      6.32954443328    6.32954443328   -0.04367284424
Mg                      6.32954443328   -6.32954443328   -0.04367284424
Mg                     -6.32954443328   -6.32954443328   -0.04367284424
Mg                     -8.44098705582    2.10705287155   -2.14155206950
Mg                     -2.10705287155    8.44098705582   -2.14155206950
Mg                      2.10705287155    8.44098705582   -2.14155206950
Mg                      8.44098705582    2.10705287155   -2.14155206950
Mg                      8.44098705582   -2.10705287155   -2.14155206950
Mg                      2.10705287155   -8.44098705582   -2.14155206950
Mg                     -2.10705287155   -8.44098705582   -2.14155206950
Mg                     -8.44098705582   -2.10705287155   -2.14155206950
Mg                     -8.44098705582    4.22049352791   -0.04269731856
Mg                     -4.22049352791    8.44098705582   -0.04269731856
Mg                      4.22049352791    8.44098705582   -0.04269731856
Mg                      8.44098705582    4.22049352791   -0.04269731856
Mg                      8.44098705582   -4.22049352791   -0.04269731856
Mg                      4.22049352791   -8.44098705582   -0.04269731856
Mg                     -4.22049352791   -8.44098705582   -0.04269731856
Mg                     -8.44098705582   -4.22049352791   -0.04269731856

ghost=serialno


qmmm=Amber
pointcharges
10169
    -2.10705287155    0.00000000000   -2.14155206950    2.00000000000
     0.00000000000    2.10705287155   -2.14155206950    2.00000000000
     2.10705287155    0.00000000000   -2.14155206950    2.00000000000
     0.00000000000   -2.10705287155   -2.14155206950    2.00000000000
    -4.22049352791    0.00000000000   -0.04269731856    2.00000000000
     0.00000000000    4.22049352791   -0.04269731856    2.00000000000
     4.22049352791    0.00000000000   -0.04269731856    2.00000000000
     0.00000000000   -4.22049352791   -0.04269731856    2.00000000000
     0.00000000000    0.00000000000   -4.26789528527    2.00000000000
    -4.22049352791    0.00000000000   -2.15129719490   -2.00000000000
     0.00000000000    4.22049352791   -2.15129719490   -2.00000000000
     4.22049352791    0.00000000000   -2.15129719490   -2.00000000000
     0.00000000000   -4.22049352791   -2.15129719490   -2.00000000000
    -2.11024676395    0.00000000000   -4.26789528527   -2.00000000000
     0.00000000000    2.11024676395   -4.26789528527   -2.00000000000
     2.11024676395    0.00000000000   -4.26789528527   -2.00000000000
     0.00000000000   -2.11024676395   -4.26789528527   -2.00000000000
    -4.22049352791    2.10973412517   -2.14445912302    2.00000000000
    -2.10973412517    4.22049352791   -2.14445912302    2.00000000000
     2.10973412517    4.22049352791   -2.14445912302    2.00000000000
     4.22049352791    2.10973412517   -2.14445912302    2.00000000000
     4.22049352791   -2.10973412517   -2.14445912302    2.00000000000
     2.10973412517   -4.22049352791   -2.14445912302    2.00000000000
    -2.10973412517   -4.22049352791   -2.14445912302    2.00000000000
    -4.22049352791   -2.10973412517   -2.14445912302    2.00000000000
    -2.11024676395    2.11024676395   -4.26789528527    2.00000000000
     2.11024676395    2.11024676395   -4.26789528527    2.00000000000
     2.11024676395   -2.11024676395   -4.26789528527    2.00000000000
    -2.11024676395   -2.11024676395   -4.26789528527    2.00000000000
    -4.22049352791    4.22049352791   -0.03992370948    2.00000000000
     4.22049352791    4.22049352791   -0.03992370948    2.00000000000
     4.22049352791   -4.22049352791   -0.03992370948    2.00000000000
    -4.22049352791   -4.22049352791   -0.03992370948    2.00000000000
    -4.22049352791    0.00000000000   -4.26789528527    2.00000000000
     0.00000000000    4.22049352791   -4.26789528527    2.00000000000
     4.22049352791    0.00000000000   -4.26789528527    2.00000000000
     0.00000000000   -4.22049352791   -4.26789528527    2.00000000000
    -6.32080279923    0.00000000000    0.00567209089   -2.00000000000
     0.00000000000    6.32080279923    0.00567209089   -2.00000000000
     6.32080279923    0.00000000000    0.00567209089   -2.00000000000
     0.00000000000   -6.32080279923    0.00567209089   -2.00000000000
    -4.22049352791    4.22049352791   -2.15028985266   -2.00000000000
     4.22049352791    4.22049352791   -2.15028985266   -2.00000000000
     4.22049352791   -4.22049352791   -2.15028985266   -2.00000000000
    -4.22049352791   -4.22049352791   -2.15028985266   -2.00000000000
    -4.22049352791    2.11024676395   -4.26789528527   -2.00000000000
    -2.11024676395    4.22049352791   -4.26789528527   -2.00000000000
     2.11024676395    4.22049352791   -4.26789528527   -2.00000000000
     4.22049352791    2.11024676395   -4.26789528527   -2.00000000000
     4.22049352791   -2.11024676395   -4.26789528527   -2.00000000000
     2.11024676395   -4.22049352791   -4.26789528527   -2.00000000000
    -2.11024676395   -4.22049352791   -4.26789528527   -2.00000000000
    -4.22049352791   -2.11024676395   -4.26789528527   -2.00000000000
     0.00000000000    0.00000000000   -6.37814204923   -2.00000000000
    -6.32954443328    2.11144262254   -0.04367284424    2.00000000000
    -2.11144262254    6.32954443328   -0.04367284424    2.00000000000
     2.11144262254    6.32954443328   -0.04367284424    2.00000000000
     6.32954443328    2.11144262254   -0.04367284424    2.00000000000
     6.32954443328   -2.11144262254   -0.04367284424    2.00000000000
     2.11144262254   -6.32954443328   -0.04367284424    2.00000000000
    -2.11144262254   -6.32954443328   -0.04367284424    2.00000000000
    -6.32954443328   -2.11144262254   -0.04367284424    2.00000000000
    -6.33393418427    0.00000000000   -2.14155206950    2.00000000000
     0.00000000000    6.33393418427   -2.14155206950    2.00000000000
     6.33393418427    0.00000000000   -2.14155206950    2.00000000000
     0.00000000000   -6.33393418427   -2.14155206950    2.00000000000
    -2.11024676395    0.00000000000   -6.37814204923    2.00000000000
     0.00000000000    2.11024676395   -6.37814204923    2.00000000000
     2.11024676395    0.00000000000   -6.37814204923    2.00000000000
     0.00000000000   -2.11024676395   -6.37814204923    2.00000000000
    -6.33028254133    2.11070451449   -2.14923989662   -2.00000000000
    -2.11070451449    6.33028254133   -2.14923989662   -2.00000000000
     2.11070451449    6.33028254133   -2.14923989662   -2.00000000000
     6.33028254133    2.11070451449   -2.14923989662   -2.00000000000
     6.33028254133   -2.11070451449   -2.14923989662   -2.00000000000
     2.11070451449   -6.33028254133   -2.14923989662   -2.00000000000
    -2.11070451449   -6.33028254133   -2.14923989662   -2.00000000000
    -6.33028254133   -2.11070451449   -2.14923989662   -2.00000000000
    -2.11024676395    2.11024676395   -6.37814204923   -2.00000000000
     2.11024676395    2.11024676395   -6.37814204923   -2.00000000000
     2.11024676395   -2.11024676395   -6.37814204923   -2.00000000000
    -2.11024676395   -2.11024676395   -6.37814204923   -2.00000000000
    -4.22049352791    4.22049352791   -4.26789528527    2.00000000000
     4.22049352791    4.22049352791   -4.26789528527    2.00000000000
     4.22049352791   -4.22049352791   -4.26789528527    2.00000000000
    -4.22049352791   -4.22049352791   -4.26789528527    2.00000000000
    -6.32889565859    4.22049352791    0.00772802266   -2.00000000000
    -4.22049352791    6.32889565859    0.00772802266   -2.00000000000
     4.22049352791    6.32889565859    0.00772802266   -2.00000000000
     6.32889565859    4.22049352791    0.00772802266   -2.00000000000
     6.32889565859   -4.22049352791    0.00772802266   -2.00000000000
     4.22049352791   -6.32889565859    0.00772802266   -2.00000000000
    -4.22049352791   -6.32889565859    0.00772802266   -2.00000000000
    -6.32889565859   -4.22049352791    0.00772802266   -2.00000000000
    -6.33074029186    0.00000000000   -4.26789528527   -2.00000000000
     0.00000000000    6.33074029186   -4.26789528527   -2.00000000000
     6.33074029186    0.00000000000   -4.26789528527   -2.00000000000
     0.00000000000   -6.33074029186   -4.26789528527   -2.00000000000
    -4.22049352791    0.00000000000   -6.37814204923   -2.00000000000
     0.00000000000    4.22049352791   -6.37814204923   -2.00000000000
     4.22049352791    0.00000000000   -6.37814204923   -2.00000000000
     0.00000000000   -4.22049352791   -6.37814204923   -2.00000000000
    -6.33125293065    4.22049352791   -2.14445912302    2.00000000000
    -4.22049352791    6.33125293065   -2.14445912302    2.00000000000
     4.22049352791    6.33125293065   -2.14445912302    2.00000000000
     6.33125293065    4.22049352791   -2.14445912302    2.00000000000
     6.33125293065   -4.22049352791   -2.14445912302    2.00000000000
     4.22049352791   -6.33125293065   -2.14445912302    2.00000000000
    -4.22049352791   -6.33125293065   -2.14445912302    2.00000000000
    -6.33125293065   -4.22049352791   -2.14445912302    2.00000000000
    -6.33074029186    2.11024676395   -4.26789528527    2.00000000000
    -2.11024676395    6.33074029186   -4.26789528527    2.00000000000
     2.11024676395    6.33074029186   -4.26789528527    2.00000000000
     6.33074029186    2.11024676395   -4.26789528527    2.00000000000
     6.33074029186   -2.11024676395   -4.26789528527    2.00000000000
     2.11024676395   -6.33074029186   -4.26789528527    2.00000000000
    -2.11024676395   -6.33074029186   -4.26789528527    2.00000000000
    -6.33074029186   -2.11024676395   -4.26789528527    2.00000000000
    -4.22049352791    2.11024676395   -6.37814204923    2.00000000000
    -2.11024676395    4.22049352791   -6.37814204923    2.00000000000
     2.11024676395    4.22049352791   -6.37814204923    2.00000000000
     4.22049352791    2.11024676395   -6.37814204923    2.00000000000
     4.22049352791   -2.11024676395   -6.37814204923    2.00000000000
     2.11024676395   -4.22049352791   -6.37814204923    2.00000000000
    -2.11024676395   -4.22049352791   -6.37814204923    2.00000000000
    -4.22049352791   -2.11024676395   -6.37814204923    2.00000000000
    -8.44098705582    0.00000000000    0.00000000000    2.00000000000
     0.00000000000    8.44098705582    0.00000000000    2.00000000000
     8.44098705582    0.00000000000    0.00000000000    2.00000000000
     0.00000000000   -8.44098705582    0.00000000000    2.00000000000
    -8.44098705582    2.12018425659    0.00567209089   -2.00000000000
    -2.12018425659    8.44098705582    0.00567209089   -2.00000000000
     2.12018425659    8.44098705582    0.00567209089   -2.00000000000
     8.44098705582    2.12018425659    0.00567209089   -2.00000000000
     8.44098705582   -2.12018425659    0.00567209089   -2.00000000000
     2.12018425659   -8.44098705582    0.00567209089   -2.00000000000
    -2.12018425659   -8.44098705582    0.00567209089   -2.00000000000
    -8.44098705582   -2.12018425659    0.00567209089   -2.00000000000
    -8.44098705582    0.00000000000   -2.14129966123   -2.00000000000
     0.00000000000    8.44098705582   -2.14129966123   -2.00000000000
     8.44098705582    0.00000000000   -2.14129966123   -2.00000000000
     0.00000000000   -8.44098705582   -2.14129966123   -2.00000000000
    -6.33074029186    4.22049352791   -4.26789528527   -2.00000000000
    -4.22049352791    6.33074029186   -4.26789528527   -2.00000000000
     4.22049352791    6.33074029186   -4.26789528527   -2.00000000000
     6.33074029186    4.22049352791   -4.26789528527   -2.00000000000
     6.33074029186   -4.22049352791   -4.26789528527   -2.00000000000
     4.22049352791   -6.33074029186   -4.26789528527   -2.00000000000
    -4.22049352791   -6.33074029186   -4.26789528527   -2.00000000000
    -6.33074029186   -4.22049352791   -4.26789528527   -2.00000000000
    -4.22049352791    4.22049352791   -6.37814204923   -2.00000000000
     4.22049352791    4.22049352791   -6.37814204923   -2.00000000000
     4.22049352791   -4.22049352791   -6.37814204923   -2.00000000000
    -4.22049352791   -4.22049352791   -6.37814204923   -2.00000000000
    -6.32954443328    6.32954443328   -0.04367284424    2.00000000000
     6.32954443328    6.32954443328   -0.04367284424    2.00000000000
     6.32954443328   -6.32954443328   -0.04367284424    2.00000000000
    -6.32954443328   -6.32954443328   -0.04367284424    2.00000000000
    -8.44098705582    2.10705287155   -2.14155206950    2.00000000000
    -2.10705287155    8.44098705582   -2.14155206950    2.00000000000
     2.10705287155    8.44098705582   -2.14155206950    2.00000000000
     8.44098705582    2.10705287155   -2.14155206950    2.00000000000
     8.44098705582   -2.10705287155   -2.14155206950    2.00000000000
     2.10705287155   -8.44098705582   -2.14155206950    2.00000000000
    -2.10705287155   -8.44098705582   -2.14155206950    2.00000000000
    -8.44098705582   -2.10705287155   -2.14155206950    2.00000000000
    -6.33074029186    0.00000000000   -6.37814204923    2.00000000000
     0.00000000000    6.33074029186   -6.37814204923    2.00000000000
     6.33074029186    0.00000000000   -6.37814204923    2.00000000000
     0.00000000000   -6.33074029186   -6.37814204923    2.00000000000
    -6.33028254133    6.33028254133   -2.14923989662   -2.00000000000
     6.33028254133    6.33028254133   -2.14923989662   -2.00000000000
     6.33028254133   -6.33028254133   -2.14923989662   -2.00000000000
    -6.33028254133   -6.33028254133   -2.14923989662   -2.00000000000
    -6.33074029186    2.11024676395   -6.37814204923   -2.00000000000
    -2.11024676395    6.33074029186   -6.37814204923   -2.00000000000
     2.11024676395    6.33074029186   -6.37814204923   -2.00000000000
     6.33074029186    2.11024676395   -6.37814204923   -2.00000000000
     6.33074029186   -2.11024676395   -6.37814204923   -2.00000000000
     2.11024676395   -6.33074029186   -6.37814204923   -2.00000000000
    -2.11024676395   -6.33074029186   -6.37814204923   -2.00000000000
    -6.33074029186   -2.11024676395   -6.37814204923   -2.00000000000
    -8.44098705582    4.22049352791   -0.04269731856    2.00000000000
    -4.22049352791    8.44098705582   -0.04269731856    2.00000000000
     4.22049352791    8.44098705582   -0.04269731856    2.00000000000
     8.44098705582    4.22049352791   -0.04269731856    2.00000000000
     8.44098705582   -4.22049352791   -0.04269731856    2.00000000000
     4.22049352791   -8.44098705582   -0.04269731856    2.00000000000
    -4.22049352791   -8.44098705582   -0.04269731856    2.00000000000
    -8.44098705582   -4.22049352791   -0.04269731856    2.00000000000
    -8.44098705582    0.00000000000   -4.26789528527    2.00000000000
     0.00000000000    8.44098705582   -4.26789528527    2.00000000000
     8.44098705582    0.00000000000   -4.26789528527    2.00000000000
     0.00000000000   -8.44098705582   -4.26789528527    2.00000000000
    -8.44098705582    4.22049352791   -2.15129719490   -2.00000000000
    -4.22049352791    8.44098705582   -2.15129719490   -2.00000000000
     4.22049352791    8.44098705582   -2.15129719490   -2.00000000000
     8.44098705582    4.22049352791   -2.15129719490   -2.00000000000
     8.44098705582   -4.22049352791   -2.15129719490   -2.00000000000
     4.22049352791   -8.44098705582   -2.15129719490   -2.00000000000
    -4.22049352791   -8.44098705582   -2.15129719490   -2.00000000000
    -8.44098705582   -4.22049352791   -2.15129719490   -2.00000000000
    -8.44098705582    2.11024676395   -4.26789528527   -2.00000000000
    -2.11024676395    8.44098705582   -4.26789528527   -2.00000000000
     2.11024676395    8.44098705582   -4.26789528527   -2.00000000000
     8.44098705582    2.11024676395   -4.26789528527   -2.00000000000
     8.44098705582   -2.11024676395   -4.26789528527   -2.00000000000
     2.11024676395   -8.44098705582   -4.26789528527   -2.00000000000
    -2.11024676395   -8.44098705582   -4.26789528527   -2.00000000000
    -8.44098705582   -2.11024676395   -4.26789528527   -2.00000000000
    -6.33074029186    6.33074029186   -4.26789528527    2.00000000000
     6.33074029186    6.33074029186   -4.26789528527    2.00000000000
     6.33074029186   -6.33074029186   -4.26789528527    2.00000000000
    -6.33074029186   -6.33074029186   -4.26789528527    2.00000000000
    -6.33074029186    4.22049352791   -6.37814204923    2.00000000000
    -4.22049352791    6.33074029186   -6.37814204923    2.00000000000
     4.22049352791    6.33074029186   -6.37814204923    2.00000000000
     6.33074029186    4.22049352791   -6.37814204923    2.00000000000
     6.33074029186   -4.22049352791   -6.37814204923    2.00000000000
     4.22049352791   -6.33074029186   -6.37814204923    2.00000000000
    -4.22049352791   -6.33074029186   -6.37814204923    2.00000000000
    -6.33074029186   -4.22049352791   -6.37814204923    2.00000000000
    -8.44098705582    4.22049352791   -4.26789528527    2.00000000000
    -4.22049352791    8.44098705582   -4.26789528527    2.00000000000
     4.22049352791    8.44098705582   -4.26789528527    2.00000000000
     8.44098705582    4.22049352791   -4.26789528527    2.00000000000
     8.44098705582   -4.22049352791   -4.26789528527    2.00000000000
     4.22049352791   -8.44098705582   -4.26789528527    2.00000000000
    -4.22049352791   -8.44098705582   -4.26789528527    2.00000000000
    -8.44098705582   -4.22049352791   -4.26789528527    2.00000000000
    -8.44098705582    6.32080279923    0.00567209089   -2.00000000000
    -6.32080279923    8.44098705582    0.00567209089   -2.00000000000
     6.32080279923    8.44098705582    0.00567209089   -2.00000000000
     8.44098705582    6.32080279923    0.00567209089   -2.00000000000
     8.44098705582   -6.32080279923    0.00567209089   -2.00000000000
     6.32080279923   -8.44098705582    0.00567209089   -2.00000000000
    -6.32080279923   -8.44098705582    0.00567209089   -2.00000000000
    -8.44098705582   -6.32080279923    0.00567209089   -2.00000000000
   -10.56117131241    0.00000000000    0.00567209089   -2.00000000000
     0.00000000000   10.56117131241    0.00567209089   -2.00000000000
    10.56117131241    0.00000000000    0.00567209089   -2.00000000000
     0.00000000000  -10.56117131241    0.00567209089   -2.00000000000
    -8.44098705582    0.00000000000   -6.37814204923   -2.00000000000
     0.00000000000    8.44098705582   -6.37814204923   -2.00000000000
     8.44098705582    0.00000000000   -6.37814204923   -2.00000000000
     0.00000000000   -8.44098705582   -6.37814204923   -2.00000000000
   -10.55242967836    2.11144262254   -0.04367284424    2.00000000000
    -2.11144262254   10.55242967836   -0.04367284424    2.00000000000
     2.11144262254   10.55242967836   -0.04367284424    2.00000000000
    10.55242967836    2.11144262254   -0.04367284424    2.00000000000
    10.55242967836   -2.11144262254   -0.04367284424    2.00000000000
     2.11144262254  -10.55242967836   -0.04367284424    2.00000000000
    -2.11144262254  -10.55242967836   -0.04367284424    2.00000000000
   -10.55242967836   -2.11144262254   -0.04367284424    2.00000000000
   -10.54803992736    0.00000000000   -2.14155206950    2.00000000000
     0.00000000000   10.54803992736   -2.14155206950    2.00000000000
    10.54803992736    0.00000000000   -2.14155206950    2.00000000000
     0.00000000000  -10.54803992736   -2.14155206950    2.00000000000
    -8.44098705582    6.33393418427   -2.14155206950    2.00000000000
    -6.33393418427    8.44098705582   -2.14155206950    2.00000000000
     6.33393418427    8.44098705582   -2.14155206950    2.00000000000
     8.44098705582    6.33393418427   -2.14155206950    2.00000000000
     8.44098705582   -6.33393418427   -2.14155206950    2.00000000000
     6.33393418427   -8.44098705582   -2.14155206950    2.00000000000
    -6.33393418427   -8.44098705582   -2.14155206950    2.00000000000
    -8.44098705582   -6.33393418427   -2.14155206950    2.00000000000
    -8.44098705582    2.11024676395   -6.37814204923    2.00000000000
    -2.11024676395    8.44098705582   -6.37814204923    2.00000000000
     2.11024676395    8.44098705582   -6.37814204923    2.00000000000
     8.44098705582    2.11024676395   -6.37814204923    2.00000000000
     8.44098705582   -2.11024676395   -6.37814204923    2.00000000000
     2.11024676395   -8.44098705582   -6.37814204923    2.00000000000
    -2.11024676395   -8.44098705582   -6.37814204923    2.00000000000
    -8.44098705582   -2.11024676395   -6.37814204923    2.00000000000
   -10.55169157031    2.11070451449   -2.14923989662   -2.00000000000
    -2.11070451449   10.55169157031   -2.14923989662   -2.00000000000
     2.11070451449   10.55169157031   -2.14923989662   -2.00000000000
    10.55169157031    2.11070451449   -2.14923989662   -2.00000000000
    10.55169157031   -2.11070451449   -2.14923989662   -2.00000000000
     2.11070451449  -10.55169157031   -2.14923989662   -2.00000000000
    -2.11070451449  -10.55169157031   -2.14923989662   -2.00000000000
   -10.55169157031   -2.11070451449   -2.14923989662   -2.00000000000
    -6.33074029186    6.33074029186   -6.37814204923   -2.00000000000
     6.33074029186    6.33074029186   -6.37814204923   -2.00000000000
     6.33074029186   -6.33074029186   -6.37814204923   -2.00000000000
    -6.33074029186   -6.33074029186   -6.37814204923   -2.00000000000
   -10.55307845305    4.22049352791    0.00772802266   -2.00000000000
    -4.22049352791   10.55307845305    0.00772802266   -2.00000000000
     4.22049352791   10.55307845305    0.00772802266   -2.00000000000
    10.55307845305    4.22049352791    0.00772802266   -2.00000000000
    10.55307845305   -4.22049352791    0.00772802266   -2.00000000000
     4.22049352791  -10.55307845305    0.00772802266   -2.00000000000
    -4.22049352791  -10.55307845305    0.00772802266   -2.00000000000
   -10.55307845305   -4.22049352791    0.00772802266   -2.00000000000
   -10.55123381977    0.00000000000   -4.26789528527   -2.00000000000
    -8.44098705582    6.33074029186   -4.26789528527   -2.00000000000
    -6.33074029186    8.44098705582   -4.26789528527   -2.00000000000
     0.00000000000   10.55123381977   -4.26789528527   -2.00000000000
     6.33074029186    8.44098705582   -4.26789528527   -2.00000000000
     8.44098705582    6.33074029186   -4.26789528527   -2.00000000000
    10.55123381977    0.00000000000   -4.26789528527   -2.00000000000
     8.44098705582   -6.33074029186   -4.26789528527   -2.00000000000
     6.33074029186   -8.44098705582   -4.26789528527   -2.00000000000
     0.00000000000  -10.55123381977   -4.26789528527   -2.00000000000
    -6.33074029186   -8.44098705582   -4.26789528527   -2.00000000000
    -8.44098705582   -6.33074029186   -4.26789528527   -2.00000000000
    -8.44098705582    4.22049352791   -6.37814204923   -2.00000000000
    -4.22049352791    8.44098705582   -6.37814204923   -2.00000000000
     4.22049352791    8.44098705582   -6.37814204923   -2.00000000000
     8.44098705582    4.22049352791   -6.37814204923   -2.00000000000
     8.44098705582   -4.22049352791   -6.37814204923   -2.00000000000
     4.22049352791   -8.44098705582   -6.37814204923   -2.00000000000
    -4.22049352791   -8.44098705582   -6.37814204923   -2.00000000000
    -8.44098705582   -4.22049352791   -6.37814204923   -2.00000000000
   -10.55072118099    4.22049352791   -2.14445912302    2.00000000000
    -4.22049352791   10.55072118099   -2.14445912302    2.00000000000
     4.22049352791   10.55072118099   -2.14445912302    2.00000000000
    10.55072118099    4.22049352791   -2.14445912302    2.00000000000
    10.55072118099   -4.22049352791   -2.14445912302    2.00000000000
     4.22049352791  -10.55072118099   -2.14445912302    2.00000000000
    -4.22049352791  -10.55072118099   -2.14445912302    2.00000000000
   -10.55072118099   -4.22049352791   -2.14445912302    2.00000000000
   -10.55123381977    2.11024676395   -4.26789528527    2.00000000000
    -2.11024676395   10.55123381977   -4.26789528527    2.00000000000
     2.11024676395   10.55123381977   -4.26789528527    2.00000000000
    10.55123381977    2.11024676395   -4.26789528527    2.00000000000
    10.55123381977   -2.11024676395   -4.26789528527    2.00000000000
     2.11024676395  -10.55123381977   -4.26789528527    2.00000000000
    -2.11024676395  -10.55123381977   -4.26789528527    2.00000000000
   -10.55123381977   -2.11024676395   -4.26789528527    2.00000000000
    -8.44098705582    8.44098705582    0.00000000000    2.00000000000
     8.44098705582    8.44098705582    0.00000000000    2.00000000000
     8.44098705582   -8.44098705582    0.00000000000    2.00000000000
    -8.44098705582   -8.44098705582    0.00000000000    2.00000000000
    -8.44098705582    8.44098705582   -2.14129966123   -2.00000000000
     8.44098705582    8.44098705582   -2.14129966123   -2.00000000000
     8.44098705582   -8.44098705582   -2.14129966123   -2.00000000000
    -8.44098705582   -8.44098705582   -2.14129966123   -2.00000000000
   -10.55123381977    4.22049352791   -4.26789528527   -2.00000000000
    -4.22049352791   10.55123381977   -4.26789528527   -2.00000000000
     4.22049352791   10.55123381977   -4.26789528527   -2.00000000000
    10.55123381977    4.22049352791   -4.26789528527   -2.00000000000
    10.55123381977   -4.22049352791   -4.26789528527   -2.00000000000
     4.22049352791  -10.55123381977   -4.26789528527   -2.00000000000
    -4.22049352791  -10.55123381977   -4.26789528527   -2.00000000000
   -10.55123381977   -4.22049352791   -4.26789528527   -2.00000000000
   -10.55242967836    6.32954443328   -0.04367284424    2.00000000000
    -6.32954443328   10.55242967836   -0.04367284424    2.00000000000
     6.32954443328   10.55242967836   -0.04367284424    2.00000000000
    10.55242967836    6.32954443328   -0.04367284424    2.00000000000
    10.55242967836   -6.32954443328   -0.04367284424    2.00000000000
     6.32954443328  -10.55242967836   -0.04367284424    2.00000000000
    -6.32954443328  -10.55242967836   -0.04367284424    2.00000000000
   -10.55242967836   -6.32954443328   -0.04367284424    2.00000000000
   -10.55123381977    0.00000000000   -6.37814204923    2.00000000000
    -8.44098705582    6.33074029186   -6.37814204923    2.00000000000
    -6.33074029186    8.44098705582   -6.37814204923    2.00000000000
     0.00000000000   10.55123381977   -6.37814204923    2.00000000000
     6.33074029186    8.44098705582   -6.37814204923    2.00000000000
     8.44098705582    6.33074029186   -6.37814204923    2.00000000000
    10.55123381977    0.00000000000   -6.37814204923    2.00000000000
     8.44098705582   -6.33074029186   -6.37814204923    2.00000000000
     6.33074029186   -8.44098705582   -6.37814204923    2.00000000000
     0.00000000000  -10.55123381977   -6.37814204923    2.00000000000
    -6.33074029186   -8.44098705582   -6.37814204923    2.00000000000
    -8.44098705582   -6.33074029186   -6.37814204923    2.00000000000
   -10.55169157031    6.33028254133   -2.14923989662   -2.00000000000
    -6.33028254133   10.55169157031   -2.14923989662   -2.00000000000
     6.33028254133   10.55169157031   -2.14923989662   -2.00000000000
    10.55169157031    6.33028254133   -2.14923989662   -2.00000000000
    10.55169157031   -6.33028254133   -2.14923989662   -2.00000000000
     6.33028254133  -10.55169157031   -2.14923989662   -2.00000000000
    -6.33028254133  -10.55169157031   -2.14923989662   -2.00000000000
   -10.55169157031   -6.33028254133   -2.14923989662   -2.00000000000
   -10.55123381977    2.11024676395   -6.37814204923   -2.00000000000
    -2.11024676395   10.55123381977   -6.37814204923   -2.00000000000
     2.11024676395   10.55123381977   -6.37814204923   -2.00000000000
    10.55123381977    2.11024676395   -6.37814204923   -2.00000000000
    10.55123381977   -2.11024676395   -6.37814204923   -2.00000000000
     2.11024676395  -10.55123381977   -6.37814204923   -2.00000000000
    -2.11024676395  -10.55123381977   -6.37814204923   -2.00000000000
   -10.55123381977   -2.11024676395   -6.37814204923   -2.00000000000
   -12.66148058373    0.00000000000   -0.04269731856    2.00000000000
     0.00000000000   12.66148058373   -0.04269731856    2.00000000000
    12.66148058373    0.00000000000   -0.04269731856    2.00000000000
     0.00000000000  -12.66148058373   -0.04269731856    2.00000000000
    -8.44098705582    8.44098705582   -4.26789528527    2.00000000000
     8.44098705582    8.44098705582   -4.26789528527    2.00000000000
     8.44098705582   -8.44098705582   -4.26789528527    2.00000000000
    -8.44098705582   -8.44098705582   -4.26789528527    2.00000000000
   -12.66148058373    2.11209139723    0.00772802266   -2.00000000000
    -2.11209139723   12.66148058373    0.00772802266   -2.00000000000
     2.11209139723   12.66148058373    0.00772802266   -2.00000000000
    12.66148058373    2.11209139723    0.00772802266   -2.00000000000
    12.66148058373   -2.11209139723    0.00772802266   -2.00000000000
     2.11209139723  -12.66148058373    0.00772802266   -2.00000000000
    -2.11209139723  -12.66148058373    0.00772802266   -2.00000000000
   -12.66148058373   -2.11209139723    0.00772802266   -2.00000000000
   -12.66148058373    0.00000000000   -2.15129719490   -2.00000000000
     0.00000000000   12.66148058373   -2.15129719490   -2.00000000000
    12.66148058373    0.00000000000   -2.15129719490   -2.00000000000
     0.00000000000  -12.66148058373   -2.15129719490   -2.00000000000
   -12.66148058373    2.10973412517   -2.14445912302    2.00000000000
    -2.10973412517   12.66148058373   -2.14445912302    2.00000000000
     2.10973412517   12.66148058373   -2.14445912302    2.00000000000
    12.66148058373    2.10973412517   -2.14445912302    2.00000000000
    12.66148058373   -2.10973412517   -2.14445912302    2.00000000000
     2.10973412517  -12.66148058373   -2.14445912302    2.00000000000
    -2.10973412517  -12.66148058373   -2.14445912302    2.00000000000
   -12.66148058373   -2.10973412517   -2.14445912302    2.00000000000
   -10.55123381977    6.33074029186   -4.26789528527    2.00000000000
    -6.33074029186   10.55123381977   -4.26789528527    2.00000000000
     6.33074029186   10.55123381977   -4.26789528527    2.00000000000
    10.55123381977    6.33074029186   -4.26789528527    2.00000000000
    10.55123381977   -6.33074029186   -4.26789528527    2.00000000000
     6.33074029186  -10.55123381977   -4.26789528527    2.00000000000
    -6.33074029186  -10.55123381977   -4.26789528527    2.00000000000
   -10.55123381977   -6.33074029186   -4.26789528527    2.00000000000
   -10.55123381977    4.22049352791   -6.37814204923    2.00000000000
    -4.22049352791   10.55123381977   -6.37814204923    2.00000000000
     4.22049352791   10.55123381977   -6.37814204923    2.00000000000
    10.55123381977    4.22049352791   -6.37814204923    2.00000000000
    10.55123381977   -4.22049352791   -6.37814204923    2.00000000000
     4.22049352791  -10.55123381977   -6.37814204923    2.00000000000
    -4.22049352791  -10.55123381977   -6.37814204923    2.00000000000
   -10.55123381977   -4.22049352791   -6.37814204923    2.00000000000
   -12.66148058373    4.22049352791   -0.03992370948    2.00000000000
    -4.22049352791   12.66148058373   -0.03992370948    2.00000000000
     4.22049352791   12.66148058373   -0.03992370948    2.00000000000
    12.66148058373    4.22049352791   -0.03992370948    2.00000000000
    12.66148058373   -4.22049352791   -0.03992370948    2.00000000000
     4.22049352791  -12.66148058373   -0.03992370948    2.00000000000
    -4.22049352791  -12.66148058373   -0.03992370948    2.00000000000
   -12.66148058373   -4.22049352791   -0.03992370948    2.00000000000
   -12.66148058373    0.00000000000   -4.26789528527    2.00000000000
     0.00000000000   12.66148058373   -4.26789528527    2.00000000000
    12.66148058373    0.00000000000   -4.26789528527    2.00000000000
     0.00000000000  -12.66148058373   -4.26789528527    2.00000000000
   -12.66148058373    4.22049352791   -2.15028985266   -2.00000000000
    -4.22049352791   12.66148058373   -2.15028985266   -2.00000000000
     4.22049352791   12.66148058373   -2.15028985266   -2.00000000000
    12.66148058373    4.22049352791   -2.15028985266   -2.00000000000
    12.66148058373   -4.22049352791   -2.15028985266   -2.00000000000
     4.22049352791  -12.66148058373   -2.15028985266   -2.00000000000
    -4.22049352791  -12.66148058373   -2.15028985266   -2.00000000000
   -12.66148058373   -4.22049352791   -2.15028985266   -2.00000000000
   -10.56117131241    8.44098705582    0.00567209089   -2.00000000000
    -8.44098705582   10.56117131241    0.00567209089   -2.00000000000
     8.44098705582   10.56117131241    0.00567209089   -2.00000000000
    10.56117131241    8.44098705582    0.00567209089   -2.00000000000
    10.56117131241   -8.44098705582    0.00567209089   -2.00000000000
     8.44098705582  -10.56117131241    0.00567209089   -2.00000000000
    -8.44098705582  -10.56117131241    0.00567209089   -2.00000000000
   -10.56117131241   -8.44098705582    0.00567209089   -2.00000000000
   -12.66148058373    2.11024676395   -4.26789528527   -2.00000000000
    -2.11024676395   12.66148058373   -4.26789528527   -2.00000000000
     2.11024676395   12.66148058373   -4.26789528527   -2.00000000000
    12.66148058373    2.11024676395   -4.26789528527   -2.00000000000
    12.66148058373   -2.11024676395   -4.26789528527   -2.00000000000
     2.11024676395  -12.66148058373   -4.26789528527   -2.00000000000
    -2.11024676395  -12.66148058373   -4.26789528527   -2.00000000000
   -12.66148058373   -2.11024676395   -4.26789528527   -2.00000000000
    -8.44098705582    8.44098705582   -6.37814204923   -2.00000000000
     8.44098705582    8.44098705582   -6.37814204923   -2.00000000000
     8.44098705582   -8.44098705582   -6.37814204923   -2.00000000000
    -8.44098705582   -8.44098705582   -6.37814204923   -2.00000000000
   -10.54803992736    8.44098705582   -2.14155206950    2.00000000000
    -8.44098705582   10.54803992736   -2.14155206950    2.00000000000
     8.44098705582   10.54803992736   -2.14155206950    2.00000000000
    10.54803992736    8.44098705582   -2.14155206950    2.00000000000
    10.54803992736   -8.44098705582   -2.14155206950    2.00000000000
     8.44098705582  -10.54803992736   -2.14155206950    2.00000000000
    -8.44098705582  -10.54803992736   -2.14155206950    2.00000000000
   -10.54803992736   -8.44098705582   -2.14155206950    2.00000000000
   -10.55123381977    6.33074029186   -6.37814204923   -2.00000000000
    -6.33074029186   10.55123381977   -6.37814204923   -2.00000000000
     6.33074029186   10.55123381977   -6.37814204923   -2.00000000000
    10.55123381977    6.33074029186   -6.37814204923   -2.00000000000
    10.55123381977   -6.33074029186   -6.37814204923   -2.00000000000
     6.33074029186  -10.55123381977   -6.37814204923   -2.00000000000
    -6.33074029186  -10.55123381977   -6.37814204923   -2.00000000000
   -10.55123381977   -6.33074029186   -6.37814204923   -2.00000000000
   -12.66148058373    4.22049352791   -4.26789528527    2.00000000000
    -4.22049352791   12.66148058373   -4.26789528527    2.00000000000
     4.22049352791   12.66148058373   -4.26789528527    2.00000000000
    12.66148058373    4.22049352791   -4.26789528527    2.00000000000
    12.66148058373   -4.22049352791   -4.26789528527    2.00000000000
     4.22049352791  -12.66148058373   -4.26789528527    2.00000000000
    -4.22049352791  -12.66148058373   -4.26789528527    2.00000000000
   -12.66148058373   -4.22049352791   -4.26789528527    2.00000000000
   -12.66148058373    6.32889565859    0.00772802266   -2.00000000000
    -6.32889565859   12.66148058373    0.00772802266   -2.00000000000
     6.32889565859   12.66148058373    0.00772802266   -2.00000000000
    12.66148058373    6.32889565859    0.00772802266   -2.00000000000
    12.66148058373   -6.32889565859    0.00772802266   -2.00000000000
     6.32889565859  -12.66148058373    0.00772802266   -2.00000000000
    -6.32889565859  -12.66148058373    0.00772802266   -2.00000000000
   -12.66148058373   -6.32889565859    0.00772802266   -2.00000000000
   -10.55123381977    8.44098705582   -4.26789528527   -2.00000000000
    -8.44098705582   10.55123381977   -4.26789528527   -2.00000000000
     8.44098705582   10.55123381977   -4.26789528527   -2.00000000000
    10.55123381977    8.44098705582   -4.26789528527   -2.00000000000
    10.55123381977   -8.44098705582   -4.26789528527   -2.00000000000
     8.44098705582  -10.55123381977   -4.26789528527   -2.00000000000
    -8.44098705582  -10.55123381977   -4.26789528527   -2.00000000000
   -10.55123381977   -8.44098705582   -4.26789528527   -2.00000000000
   -12.66148058373    0.00000000000   -6.37814204923   -2.00000000000
     0.00000000000   12.66148058373   -6.37814204923   -2.00000000000
    12.66148058373    0.00000000000   -6.37814204923   -2.00000000000
     0.00000000000  -12.66148058373   -6.37814204923   -2.00000000000
   -12.66148058373    6.33125293065   -2.14445912302    2.00000000000
    -6.33125293065   12.66148058373   -2.14445912302    2.00000000000
     6.33125293065   12.66148058373   -2.14445912302    2.00000000000
    12.66148058373    6.33125293065   -2.14445912302    2.00000000000
    12.66148058373   -6.33125293065   -2.14445912302    2.00000000000
     6.33125293065  -12.66148058373   -2.14445912302    2.00000000000
    -6.33125293065  -12.66148058373   -2.14445912302    2.00000000000
   -12.66148058373   -6.33125293065   -2.14445912302    2.00000000000
   -12.66148058373    2.11024676395   -6.37814204923    2.00000000000
    -2.11024676395   12.66148058373   -6.37814204923    2.00000000000
     2.11024676395   12.66148058373   -6.37814204923    2.00000000000
    12.66148058373    2.11024676395   -6.37814204923    2.00000000000
    12.66148058373   -2.11024676395   -6.37814204923    2.00000000000
     2.11024676395  -12.66148058373   -6.37814204923    2.00000000000
    -2.11024676395  -12.66148058373   -6.37814204923    2.00000000000
   -12.66148058373   -2.11024676395   -6.37814204923    2.00000000000
   -14.76178985505    0.00000000000    0.00567209089   -2.00000000000
     0.00000000000   14.76178985505    0.00567209089   -2.00000000000
    14.76178985505    0.00000000000    0.00567209089   -2.00000000000
     0.00000000000  -14.76178985505    0.00567209089   -2.00000000000
   -12.66148058373    6.33074029186   -4.26789528527   -2.00000000000
    -6.33074029186   12.66148058373   -4.26789528527   -2.00000000000
     6.33074029186   12.66148058373   -4.26789528527   -2.00000000000
    12.66148058373    6.33074029186   -4.26789528527   -2.00000000000
    12.66148058373   -6.33074029186   -4.26789528527   -2.00000000000
     6.33074029186  -12.66148058373   -4.26789528527   -2.00000000000
    -6.33074029186  -12.66148058373   -4.26789528527   -2.00000000000
   -12.66148058373   -6.33074029186   -4.26789528527   -2.00000000000
   -12.66148058373    4.22049352791   -6.37814204923   -2.00000000000
    -4.22049352791   12.66148058373   -6.37814204923   -2.00000000000
     4.22049352791   12.66148058373   -6.37814204923   -2.00000000000
    12.66148058373    4.22049352791   -6.37814204923   -2.00000000000
    12.66148058373   -4.22049352791   -6.37814204923   -2.00000000000
     4.22049352791  -12.66148058373   -6.37814204923   -2.00000000000
    -4.22049352791  -12.66148058373   -6.37814204923   -2.00000000000
   -12.66148058373   -4.22049352791   -6.37814204923   -2.00000000000
   -14.77053148910    2.11144262254   -0.04367284424    2.00000000000
    -2.11144262254   14.77053148910   -0.04367284424    2.00000000000
     2.11144262254   14.77053148910   -0.04367284424    2.00000000000
    14.77053148910    2.11144262254   -0.04367284424    2.00000000000
    14.77053148910   -2.11144262254   -0.04367284424    2.00000000000
     2.11144262254  -14.77053148910   -0.04367284424    2.00000000000
    -2.11144262254  -14.77053148910   -0.04367284424    2.00000000000
   -14.77053148910   -2.11144262254   -0.04367284424    2.00000000000
   -10.55242967836   10.55242967836   -0.04367284424    2.00000000000
    10.55242967836   10.55242967836   -0.04367284424    2.00000000000
    10.55242967836  -10.55242967836   -0.04367284424    2.00000000000
   -10.55242967836  -10.55242967836   -0.04367284424    2.00000000000
   -14.77492124009    0.00000000000   -2.14155206950    2.00000000000
     0.00000000000   14.77492124009   -2.14155206950    2.00000000000
    14.77492124009    0.00000000000   -2.14155206950    2.00000000000
     0.00000000000  -14.77492124009   -2.14155206950    2.00000000000
   -10.55123381977    8.44098705582   -6.37814204923    2.00000000000
    -8.44098705582   10.55123381977   -6.37814204923    2.00000000000
     8.44098705582   10.55123381977   -6.37814204923    2.00000000000
    10.55123381977    8.44098705582   -6.37814204923    2.00000000000
    10.55123381977   -8.44098705582   -6.37814204923    2.00000000000
     8.44098705582  -10.55123381977   -6.37814204923    2.00000000000
    -8.44098705582  -10.55123381977   -6.37814204923    2.00000000000
   -10.55123381977   -8.44098705582   -6.37814204923    2.00000000000
   -14.77126959714    2.11070451449   -2.14923989662   -2.00000000000
    -2.11070451449   14.77126959714   -2.14923989662   -2.00000000000
     2.11070451449   14.77126959714   -2.14923989662   -2.00000000000
    14.77126959714    2.11070451449   -2.14923989662   -2.00000000000
    14.77126959714   -2.11070451449   -2.14923989662   -2.00000000000
     2.11070451449  -14.77126959714   -2.14923989662   -2.00000000000
    -2.11070451449  -14.77126959714   -2.14923989662   -2.00000000000
   -14.77126959714   -2.11070451449   -2.14923989662   -2.00000000000
   -10.55169157031   10.55169157031   -2.14923989662   -2.00000000000
    10.55169157031   10.55169157031   -2.14923989662   -2.00000000000
    10.55169157031  -10.55169157031   -2.14923989662   -2.00000000000
   -10.55169157031  -10.55169157031   -2.14923989662   -2.00000000000
   -12.66148058373    8.44098705582   -0.04269731856    2.00000000000
    -8.44098705582   12.66148058373   -0.04269731856    2.00000000000
     8.44098705582   12.66148058373   -0.04269731856    2.00000000000
    12.66148058373    8.44098705582   -0.04269731856    2.00000000000
    12.66148058373   -8.44098705582   -0.04269731856    2.00000000000
     8.44098705582  -12.66148058373   -0.04269731856    2.00000000000
    -8.44098705582  -12.66148058373   -0.04269731856    2.00000000000
   -12.66148058373   -8.44098705582   -0.04269731856    2.00000000000
   -14.76988271440    4.22049352791    0.00772802266   -2.00000000000
    -4.22049352791   14.76988271440    0.00772802266   -2.00000000000
     4.22049352791   14.76988271440    0.00772802266   -2.00000000000
    14.76988271440    4.22049352791    0.00772802266   -2.00000000000
    14.76988271440   -4.22049352791    0.00772802266   -2.00000000000
     4.22049352791  -14.76988271440    0.00772802266   -2.00000000000
    -4.22049352791  -14.76988271440    0.00772802266   -2.00000000000
   -14.76988271440   -4.22049352791    0.00772802266   -2.00000000000
   -12.66148058373    8.44098705582   -2.15129719490   -2.00000000000
    -8.44098705582   12.66148058373   -2.15129719490   -2.00000000000
     8.44098705582   12.66148058373   -2.15129719490   -2.00000000000
    12.66148058373    8.44098705582   -2.15129719490   -2.00000000000
    12.66148058373   -8.44098705582   -2.15129719490   -2.00000000000
     8.44098705582  -12.66148058373   -2.15129719490   -2.00000000000
    -8.44098705582  -12.66148058373   -2.15129719490   -2.00000000000
   -12.66148058373   -8.44098705582   -2.15129719490   -2.00000000000
   -14.77172734768    0.00000000000   -4.26789528527   -2.00000000000
     0.00000000000   14.77172734768   -4.26789528527   -2.00000000000
    14.77172734768    0.00000000000   -4.26789528527   -2.00000000000
     0.00000000000  -14.77172734768   -4.26789528527   -2.00000000000
   -14.77223998647    4.22049352791   -2.14445912302    2.00000000000
    -4.22049352791   14.77223998647   -2.14445912302    2.00000000000
     4.22049352791   14.77223998647   -2.14445912302    2.00000000000
    14.77223998647    4.22049352791   -2.14445912302    2.00000000000
    14.77223998647   -4.22049352791   -2.14445912302    2.00000000000
     4.22049352791  -14.77223998647   -2.14445912302    2.00000000000
    -4.22049352791  -14.77223998647   -2.14445912302    2.00000000000
   -14.77223998647   -4.22049352791   -2.14445912302    2.00000000000
   -14.77172734768    2.11024676395   -4.26789528527    2.00000000000
   -10.55123381977   10.55123381977   -4.26789528527    2.00000000000
    -2.11024676395   14.77172734768   -4.26789528527    2.00000000000
     2.11024676395   14.77172734768   -4.26789528527    2.00000000000
    10.55123381977   10.55123381977   -4.26789528527    2.00000000000
    14.77172734768    2.11024676395   -4.26789528527    2.00000000000
    14.77172734768   -2.11024676395   -4.26789528527    2.00000000000
    10.55123381977  -10.55123381977   -4.26789528527    2.00000000000
     2.11024676395  -14.77172734768   -4.26789528527    2.00000000000
    -2.11024676395  -14.77172734768   -4.26789528527    2.00000000000
   -10.55123381977  -10.55123381977   -4.26789528527    2.00000000000
   -14.77172734768   -2.11024676395   -4.26789528527    2.00000000000
   -12.66148058373    6.33074029186   -6.37814204923    2.00000000000
    -6.33074029186   12.66148058373   -6.37814204923    2.00000000000
     6.33074029186   12.66148058373   -6.37814204923    2.00000000000
    12.66148058373    6.33074029186   -6.37814204923    2.00000000000
    12.66148058373   -6.33074029186   -6.37814204923    2.00000000000
     6.33074029186  -12.66148058373   -6.37814204923    2.00000000000
    -6.33074029186  -12.66148058373   -6.37814204923    2.00000000000
   -12.66148058373   -6.33074029186   -6.37814204923    2.00000000000
   -12.66148058373    8.44098705582   -4.26789528527    2.00000000000
    -8.44098705582   12.66148058373   -4.26789528527    2.00000000000
     8.44098705582   12.66148058373   -4.26789528527    2.00000000000
    12.66148058373    8.44098705582   -4.26789528527    2.00000000000
    12.66148058373   -8.44098705582   -4.26789528527    2.00000000000
     8.44098705582  -12.66148058373   -4.26789528527    2.00000000000
    -8.44098705582  -12.66148058373   -4.26789528527    2.00000000000
   -12.66148058373   -8.44098705582   -4.26789528527    2.00000000000
   -14.77172734768    4.22049352791   -4.26789528527   -2.00000000000
    -4.22049352791   14.77172734768   -4.26789528527   -2.00000000000
     4.22049352791   14.77172734768   -4.26789528527   -2.00000000000
    14.77172734768    4.22049352791   -4.26789528527   -2.00000000000
    14.77172734768   -4.22049352791   -4.26789528527   -2.00000000000
     4.22049352791  -14.77172734768   -4.26789528527   -2.00000000000
    -4.22049352791  -14.77172734768   -4.26789528527   -2.00000000000
   -14.77172734768   -4.22049352791   -4.26789528527   -2.00000000000
   -14.77053148910    6.32954443328   -0.04367284424    2.00000000000
    -6.32954443328   14.77053148910   -0.04367284424    2.00000000000
     6.32954443328   14.77053148910   -0.04367284424    2.00000000000
    14.77053148910    6.32954443328   -0.04367284424    2.00000000000
    14.77053148910   -6.32954443328   -0.04367284424    2.00000000000
     6.32954443328  -14.77053148910   -0.04367284424    2.00000000000
    -6.32954443328  -14.77053148910   -0.04367284424    2.00000000000
   -14.77053148910   -6.32954443328   -0.04367284424    2.00000000000
   -14.77172734768    0.00000000000   -6.37814204923    2.00000000000
     0.00000000000   14.77172734768   -6.37814204923    2.00000000000
    14.77172734768    0.00000000000   -6.37814204923    2.00000000000
     0.00000000000  -14.77172734768   -6.37814204923    2.00000000000
   -14.77126959714    6.33028254133   -2.14923989662   -2.00000000000
    -6.33028254133   14.77126959714   -2.14923989662   -2.00000000000
     6.33028254133   14.77126959714   -2.14923989662   -2.00000000000
    14.77126959714    6.33028254133   -2.14923989662   -2.00000000000
    14.77126959714   -6.33028254133   -2.14923989662   -2.00000000000
     6.33028254133  -14.77126959714   -2.14923989662   -2.00000000000
    -6.33028254133  -14.77126959714   -2.14923989662   -2.00000000000
   -14.77126959714   -6.33028254133   -2.14923989662   -2.00000000000
   -14.77172734768    2.11024676395   -6.37814204923   -2.00000000000
   -10.55123381977   10.55123381977   -6.37814204923   -2.00000000000
    -2.11024676395   14.77172734768   -6.37814204923   -2.00000000000
     2.11024676395   14.77172734768   -6.37814204923   -2.00000000000
    10.55123381977   10.55123381977   -6.37814204923   -2.00000000000
    14.77172734768    2.11024676395   -6.37814204923   -2.00000000000
    14.77172734768   -2.11024676395   -6.37814204923   -2.00000000000
    10.55123381977  -10.55123381977   -6.37814204923   -2.00000000000
     2.11024676395  -14.77172734768   -6.37814204923   -2.00000000000
    -2.11024676395  -14.77172734768   -6.37814204923   -2.00000000000
   -10.55123381977  -10.55123381977   -6.37814204923   -2.00000000000
   -14.77172734768   -2.11024676395   -6.37814204923   -2.00000000000
   -12.66148058373   10.55307845305    0.00772802266   -2.00000000000
   -10.55307845305   12.66148058373    0.00772802266   -2.00000000000
    10.55307845305   12.66148058373    0.00772802266   -2.00000000000
    12.66148058373   10.55307845305    0.00772802266   -2.00000000000
    12.66148058373  -10.55307845305    0.00772802266   -2.00000000000
    10.55307845305  -12.66148058373    0.00772802266   -2.00000000000
   -10.55307845305  -12.66148058373    0.00772802266   -2.00000000000
   -12.66148058373  -10.55307845305    0.00772802266   -2.00000000000
   -12.66148058373    8.44098705582   -6.37814204923   -2.00000000000
    -8.44098705582   12.66148058373   -6.37814204923   -2.00000000000
     8.44098705582   12.66148058373   -6.37814204923   -2.00000000000
    12.66148058373    8.44098705582   -6.37814204923   -2.00000000000
    12.66148058373   -8.44098705582   -6.37814204923   -2.00000000000
     8.44098705582  -12.66148058373   -6.37814204923   -2.00000000000
    -8.44098705582  -12.66148058373   -6.37814204923   -2.00000000000
   -12.66148058373   -8.44098705582   -6.37814204923   -2.00000000000
   -12.66148058373   10.55072118099   -2.14445912302    2.00000000000
   -10.55072118099   12.66148058373   -2.14445912302    2.00000000000
    10.55072118099   12.66148058373   -2.14445912302    2.00000000000
    12.66148058373   10.55072118099   -2.14445912302    2.00000000000
    12.66148058373  -10.55072118099   -2.14445912302    2.00000000000
    10.55072118099  -12.66148058373   -2.14445912302    2.00000000000
   -10.55072118099  -12.66148058373   -2.14445912302    2.00000000000
   -12.66148058373  -10.55072118099   -2.14445912302    2.00000000000
   -14.77172734768    6.33074029186   -4.26789528527    2.00000000000
    -6.33074029186   14.77172734768   -4.26789528527    2.00000000000
     6.33074029186   14.77172734768   -4.26789528527    2.00000000000
    14.77172734768    6.33074029186   -4.26789528527    2.00000000000
    14.77172734768   -6.33074029186   -4.26789528527    2.00000000000
     6.33074029186  -14.77172734768   -4.26789528527    2.00000000000
    -6.33074029186  -14.77172734768   -4.26789528527    2.00000000000
   -14.77172734768   -6.33074029186   -4.26789528527    2.00000000000
   -14.77172734768    4.22049352791   -6.37814204923    2.00000000000
    -4.22049352791   14.77172734768   -6.37814204923    2.00000000000
     4.22049352791   14.77172734768   -6.37814204923    2.00000000000
    14.77172734768    4.22049352791   -6.37814204923    2.00000000000
    14.77172734768   -4.22049352791   -6.37814204923    2.00000000000
     4.22049352791  -14.77172734768   -6.37814204923    2.00000000000
    -4.22049352791  -14.77172734768   -6.37814204923    2.00000000000
   -14.77172734768   -4.22049352791   -6.37814204923    2.00000000000
   -16.88197411163    0.00000000000    0.00000000000    2.00000000000
     0.00000000000   16.88197411163    0.00000000000    2.00000000000
    16.88197411163    0.00000000000    0.00000000000    2.00000000000
     0.00000000000  -16.88197411163    0.00000000000    2.00000000000
   -14.76178985505    8.44098705582    0.00567209089   -2.00000000000
    -8.44098705582   14.76178985505    0.00567209089   -2.00000000000
     8.44098705582   14.76178985505    0.00567209089   -2.00000000000
    14.76178985505    8.44098705582    0.00567209089   -2.00000000000
    14.76178985505   -8.44098705582    0.00567209089   -2.00000000000
     8.44098705582  -14.76178985505    0.00567209089   -2.00000000000
    -8.44098705582  -14.76178985505    0.00567209089   -2.00000000000
   -14.76178985505   -8.44098705582    0.00567209089   -2.00000000000
   -16.88197411163    2.12018425659    0.00567209089   -2.00000000000
    -2.12018425659   16.88197411163    0.00567209089   -2.00000000000
     2.12018425659   16.88197411163    0.00567209089   -2.00000000000
    16.88197411163    2.12018425659    0.00567209089   -2.00000000000
    16.88197411163   -2.12018425659    0.00567209089   -2.00000000000
     2.12018425659  -16.88197411163    0.00567209089   -2.00000000000
    -2.12018425659  -16.88197411163    0.00567209089   -2.00000000000
   -16.88197411163   -2.12018425659    0.00567209089   -2.00000000000
   -16.88197411163    0.00000000000   -2.14129966123   -2.00000000000
     0.00000000000   16.88197411163   -2.14129966123   -2.00000000000
    16.88197411163    0.00000000000   -2.14129966123   -2.00000000000
     0.00000000000  -16.88197411163   -2.14129966123   -2.00000000000
   -12.66148058373   10.55123381977   -4.26789528527   -2.00000000000
   -10.55123381977   12.66148058373   -4.26789528527   -2.00000000000
    10.55123381977   12.66148058373   -4.26789528527   -2.00000000000
    12.66148058373   10.55123381977   -4.26789528527   -2.00000000000
    12.66148058373  -10.55123381977   -4.26789528527   -2.00000000000
    10.55123381977  -12.66148058373   -4.26789528527   -2.00000000000
   -10.55123381977  -12.66148058373   -4.26789528527   -2.00000000000
   -12.66148058373  -10.55123381977   -4.26789528527   -2.00000000000
   -16.88197411163    2.10705287155   -2.14155206950    2.00000000000
    -2.10705287155   16.88197411163   -2.14155206950    2.00000000000
     2.10705287155   16.88197411163   -2.14155206950    2.00000000000
    16.88197411163    2.10705287155   -2.14155206950    2.00000000000
    16.88197411163   -2.10705287155   -2.14155206950    2.00000000000
     2.10705287155  -16.88197411163   -2.14155206950    2.00000000000
    -2.10705287155  -16.88197411163   -2.14155206950    2.00000000000
   -16.88197411163   -2.10705287155   -2.14155206950    2.00000000000
   -14.77492124009    8.44098705582   -2.14155206950    2.00000000000
    -8.44098705582   14.77492124009   -2.14155206950    2.00000000000
     8.44098705582   14.77492124009   -2.14155206950    2.00000000000
    14.77492124009    8.44098705582   -2.14155206950    2.00000000000
    14.77492124009   -8.44098705582   -2.14155206950    2.00000000000
     8.44098705582  -14.77492124009   -2.14155206950    2.00000000000
    -8.44098705582  -14.77492124009   -2.14155206950    2.00000000000
   -14.77492124009   -8.44098705582   -2.14155206950    2.00000000000
   -14.77172734768    6.33074029186   -6.37814204923   -2.00000000000
    -6.33074029186   14.77172734768   -6.37814204923   -2.00000000000
     6.33074029186   14.77172734768   -6.37814204923   -2.00000000000
    14.77172734768    6.33074029186   -6.37814204923   -2.00000000000
    14.77172734768   -6.33074029186   -6.37814204923   -2.00000000000
     6.33074029186  -14.77172734768   -6.37814204923   -2.00000000000
    -6.33074029186  -14.77172734768   -6.37814204923   -2.00000000000
   -14.77172734768   -6.33074029186   -6.37814204923   -2.00000000000
   -16.88197411163    4.22049352791   -0.04269731856    2.00000000000
    -4.22049352791   16.88197411163   -0.04269731856    2.00000000000
     4.22049352791   16.88197411163   -0.04269731856    2.00000000000
    16.88197411163    4.22049352791   -0.04269731856    2.00000000000
    16.88197411163   -4.22049352791   -0.04269731856    2.00000000000
     4.22049352791  -16.88197411163   -0.04269731856    2.00000000000
    -4.22049352791  -16.88197411163   -0.04269731856    2.00000000000
   -16.88197411163   -4.22049352791   -0.04269731856    2.00000000000
   -16.88197411163    0.00000000000   -4.26789528527    2.00000000000
     0.00000000000   16.88197411163   -4.26789528527    2.00000000000
    16.88197411163    0.00000000000   -4.26789528527    2.00000000000
     0.00000000000  -16.88197411163   -4.26789528527    2.00000000000
   -16.88197411163    4.22049352791   -2.15129719490   -2.00000000000
    -4.22049352791   16.88197411163   -2.15129719490   -2.00000000000
     4.22049352791   16.88197411163   -2.15129719490   -2.00000000000
    16.88197411163    4.22049352791   -2.15129719490   -2.00000000000
    16.88197411163   -4.22049352791   -2.15129719490   -2.00000000000
     4.22049352791  -16.88197411163   -2.15129719490   -2.00000000000
    -4.22049352791  -16.88197411163   -2.15129719490   -2.00000000000
   -16.88197411163   -4.22049352791   -2.15129719490   -2.00000000000
   -16.88197411163    2.11024676395   -4.26789528527   -2.00000000000
   -14.77172734768    8.44098705582   -4.26789528527   -2.00000000000
    -8.44098705582   14.77172734768   -4.26789528527   -2.00000000000
    -2.11024676395   16.88197411163   -4.26789528527   -2.00000000000
     2.11024676395   16.88197411163   -4.26789528527   -2.00000000000
     8.44098705582   14.77172734768   -4.26789528527   -2.00000000000
    14.77172734768    8.44098705582   -4.26789528527   -2.00000000000
    16.88197411163    2.11024676395   -4.26789528527   -2.00000000000
    16.88197411163   -2.11024676395   -4.26789528527   -2.00000000000
    14.77172734768   -8.44098705582   -4.26789528527   -2.00000000000
     8.44098705582  -14.77172734768   -4.26789528527   -2.00000000000
     2.11024676395  -16.88197411163   -4.26789528527   -2.00000000000
    -2.11024676395  -16.88197411163   -4.26789528527   -2.00000000000
    -8.44098705582  -14.77172734768   -4.26789528527   -2.00000000000
   -14.77172734768   -8.44098705582   -4.26789528527   -2.00000000000
   -16.88197411163   -2.11024676395   -4.26789528527   -2.00000000000
   -12.66148058373   10.55123381977   -6.37814204923    2.00000000000
   -10.55123381977   12.66148058373   -6.37814204923    2.00000000000
    10.55123381977   12.66148058373   -6.37814204923    2.00000000000
    12.66148058373   10.55123381977   -6.37814204923    2.00000000000
    12.66148058373  -10.55123381977   -6.37814204923    2.00000000000
    10.55123381977  -12.66148058373   -6.37814204923    2.00000000000
   -10.55123381977  -12.66148058373   -6.37814204923    2.00000000000
   -12.66148058373  -10.55123381977   -6.37814204923    2.00000000000
   -12.66148058373   12.66148058373   -0.03992370948    2.00000000000
    12.66148058373   12.66148058373   -0.03992370948    2.00000000000
    12.66148058373  -12.66148058373   -0.03992370948    2.00000000000
   -12.66148058373  -12.66148058373   -0.03992370948    2.00000000000
   -16.88197411163    4.22049352791   -4.26789528527    2.00000000000
    -4.22049352791   16.88197411163   -4.26789528527    2.00000000000
     4.22049352791   16.88197411163   -4.26789528527    2.00000000000
    16.88197411163    4.22049352791   -4.26789528527    2.00000000000
    16.88197411163   -4.22049352791   -4.26789528527    2.00000000000
     4.22049352791  -16.88197411163   -4.26789528527    2.00000000000
    -4.22049352791  -16.88197411163   -4.26789528527    2.00000000000
   -16.88197411163   -4.22049352791   -4.26789528527    2.00000000000
   -16.88197411163    6.32080279923    0.00567209089   -2.00000000000
    -6.32080279923   16.88197411163    0.00567209089   -2.00000000000
     6.32080279923   16.88197411163    0.00567209089   -2.00000000000
    16.88197411163    6.32080279923    0.00567209089   -2.00000000000
    16.88197411163   -6.32080279923    0.00567209089   -2.00000000000
     6.32080279923  -16.88197411163    0.00567209089   -2.00000000000
    -6.32080279923  -16.88197411163    0.00567209089   -2.00000000000
   -16.88197411163   -6.32080279923    0.00567209089   -2.00000000000
   -12.66148058373   12.66148058373   -2.15028985266   -2.00000000000
    12.66148058373   12.66148058373   -2.15028985266   -2.00000000000
    12.66148058373  -12.66148058373   -2.15028985266   -2.00000000000
   -12.66148058373  -12.66148058373   -2.15028985266   -2.00000000000
   -16.88197411163    0.00000000000   -6.37814204923   -2.00000000000
     0.00000000000   16.88197411163   -6.37814204923   -2.00000000000
    16.88197411163    0.00000000000   -6.37814204923   -2.00000000000
     0.00000000000  -16.88197411163   -6.37814204923   -2.00000000000
   -14.77053148910   10.55242967836   -0.04367284424    2.00000000000
   -10.55242967836   14.77053148910   -0.04367284424    2.00000000000
    10.55242967836   14.77053148910   -0.04367284424    2.00000000000
    14.77053148910   10.55242967836   -0.04367284424    2.00000000000
    14.77053148910  -10.55242967836   -0.04367284424    2.00000000000
    10.55242967836  -14.77053148910   -0.04367284424    2.00000000000
   -10.55242967836  -14.77053148910   -0.04367284424    2.00000000000
   -14.77053148910  -10.55242967836   -0.04367284424    2.00000000000
   -16.88197411163    6.33393418427   -2.14155206950    2.00000000000
    -6.33393418427   16.88197411163   -2.14155206950    2.00000000000
     6.33393418427   16.88197411163   -2.14155206950    2.00000000000
    16.88197411163    6.33393418427   -2.14155206950    2.00000000000
    16.88197411163   -6.33393418427   -2.14155206950    2.00000000000
     6.33393418427  -16.88197411163   -2.14155206950    2.00000000000
    -6.33393418427  -16.88197411163   -2.14155206950    2.00000000000
   -16.88197411163   -6.33393418427   -2.14155206950    2.00000000000
   -16.88197411163    2.11024676395   -6.37814204923    2.00000000000
   -14.77172734768    8.44098705582   -6.37814204923    2.00000000000
    -8.44098705582   14.77172734768   -6.37814204923    2.00000000000
    -2.11024676395   16.88197411163   -6.37814204923    2.00000000000
     2.11024676395   16.88197411163   -6.37814204923    2.00000000000
     8.44098705582   14.77172734768   -6.37814204923    2.00000000000
    14.77172734768    8.44098705582   -6.37814204923    2.00000000000
    16.88197411163    2.11024676395   -6.37814204923    2.00000000000
    16.88197411163   -2.11024676395   -6.37814204923    2.00000000000
    14.77172734768   -8.44098705582   -6.37814204923    2.00000000000
     8.44098705582  -14.77172734768   -6.37814204923    2.00000000000
     2.11024676395  -16.88197411163   -6.37814204923    2.00000000000
    -2.11024676395  -16.88197411163   -6.37814204923    2.00000000000
    -8.44098705582  -14.77172734768   -6.37814204923    2.00000000000
   -14.77172734768   -8.44098705582   -6.37814204923    2.00000000000
   -16.88197411163   -2.11024676395   -6.37814204923    2.00000000000
   -14.77126959714   10.55169157031   -2.14923989662   -2.00000000000
   -10.55169157031   14.77126959714   -2.14923989662   -2.00000000000
    10.55169157031   14.77126959714   -2.14923989662   -2.00000000000
    14.77126959714   10.55169157031   -2.14923989662   -2.00000000000
    14.77126959714  -10.55169157031   -2.14923989662   -2.00000000000
    10.55169157031  -14.77126959714   -2.14923989662   -2.00000000000
   -10.55169157031  -14.77126959714   -2.14923989662   -2.00000000000
   -14.77126959714  -10.55169157031   -2.14923989662   -2.00000000000
   -12.66148058373   12.66148058373   -4.26789528527    2.00000000000
    12.66148058373   12.66148058373   -4.26789528527    2.00000000000
    12.66148058373  -12.66148058373   -4.26789528527    2.00000000000
[...]
 
 MP2 correlation energy [au]:       -1.236079251179
 
 LMP2 domain correlation energy contribution [au]:       -0.058839634857
 
 CPU time [min]:   418.829                   Wall time [min]:    60.667
 
 
 Starting CCSD iterations...
 
                     Residual norm       Correlation Energy
 Iteration  1        0.250639948698       -1.245953909119
 Iteration  2        0.077428895623       -1.278174026780
 Iteration  3        0.028295591584       -1.284304667727
 Iteration  4        0.006981803601       -1.284620373605
 Iteration  5        0.002559175934       -1.284556885017
 Iteration  6        0.000903960219       -1.284547506635
 Iteration  7        0.000417825255       -1.284544288944
 Iteration  8        0.000158691606       -1.284541277079
 Iteration  9        0.000065516784       -1.284541205469
 
 CCSD iteration has converged in  9 steps.
     1210.68 MB memory was utilized by CCSD
 
 T1 diagnostic:      1.423E-02            D1 diagnostic:      4.649E-02
 
 T1 contribution [au]:                         0.000000000000
 CCSD correlation energy [au]:                -0.058675148426
 
 CPU time [min]:   428.329                   Wall time [min]:    62.050
 
 Calculation of (T) correction...
 
 Laplace threshold, nquadmin:  1.00E-03   4
 Number of quadrature points:    4
 
     1223.05 MB memory is utilized for (T)

 0%       25%       50%       75%       100%
 |---------|---------|---------|---------| 
 
 (T) correction [au]:                   -0.001909611634
 CCSD(T) correlation energy [au]:       -0.060584760060
 
 CPU time [min]:   438.621                   Wall time [min]:    63.378
 
 MO:    69
 Number of atoms in domain:      24
 Number of atomic orbitals:     527
 Number of atoms for local DF:   24
 Number of fitting functions:  1748 (100.00%)
 Number of occupied orbitals:    57
 Number of virtual  orbitals:   410
 Number of Cholesky vectors:      6
 MP2 energy in ED [au]:          -0.058954458904
 Number of occupied LNOs:        40  (70.18%)
 Number of virtual  LNOs:       121  (29.51%)
 Number of Cholesky vectors:      5
 MP2 energy in LIS [au]:         -0.058821606740
 Correction for frozen LNO [au]: -0.000132852163     (0.225%)
 Number of NAFs:                410  (23.46%)
 CPU time [min]:   441.174                   Wall time [min]:    63.784
 

 Direct DF-CCSD(T) calculation
 
 Convergence criterion:  1.0E-05
 
 Number of occupied/virtual/auxiliary orbitals:    40   121   410
    594.35 MB is the minimal memory requirement for (T)
    429.04 MB is the minimal memory requirement for CCSD
 
 MP2 correlation energy [au]:       -1.236169360933
 
 LMP2 domain correlation energy contribution [au]:       -0.058839842655
 
 CPU time [min]:   441.282                   Wall time [min]:    63.817
 
 
 Starting CCSD iterations...
 
                     Residual norm       Correlation Energy
 Iteration  1        0.250617264203       -1.246037216891
 Iteration  2        0.077417028598       -1.278255778949
 Iteration  3        0.028293354060       -1.284386030601
 Iteration  4        0.006981719944       -1.284701971292
 Iteration  5        0.002559230778       -1.284638429590
 Iteration  6        0.000904063618       -1.284629048392
 Iteration  7        0.000417913413       -1.284625834744
 Iteration  8        0.000158723905       -1.284622821440
 Iteration  9        0.000065524408       -1.284622750174
 
 CCSD iteration has converged in  9 steps.
     1210.68 MB memory was utilized by CCSD
 
 T1 diagnostic:      1.423E-02            D1 diagnostic:      4.650E-02
 
 T1 contribution [au]:                         0.000000000000
 CCSD correlation energy [au]:                -0.058675315802
 
 CPU time [min]:   450.763                   Wall time [min]:    65.197
 
 Calculation of (T) correction...
 
 Laplace threshold, nquadmin:  1.00E-03   4
 Number of quadrature points:    4
 
     1223.05 MB memory is utilized for (T)

 0%       25%       50%       75%       100%
 |---------|---------|---------|---------| 
 
 (T) correction [au]:                   -0.001909619217
 CCSD(T) correlation energy [au]:       -0.060584935019
 
 CPU time [min]:   461.068                   Wall time [min]:    66.524
 
 MO:    70
 Number of atoms in domain:      24
 Number of atomic orbitals:     527
 Number of atoms for local DF:   24
 Number of fitting functions:  1748 (100.00%)
 Number of occupied orbitals:    57
 Number of virtual  orbitals:   410
 Number of Cholesky vectors:      6
 MP2 energy in ED [au]:          -0.058954446051
 Number of occupied LNOs:        40  (70.18%)
 Number of virtual  LNOs:       121  (29.51%)
 Number of Cholesky vectors:      5
 MP2 energy in LIS [au]:         -0.058821724484
 Correction for frozen LNO [au]: -0.000132721567     (0.225%)
 Number of NAFs:                410  (23.46%)
 CPU time [min]:   463.628                   Wall time [min]:    66.933
 

 Direct DF-CCSD(T) calculation
 
 Convergence criterion:  1.0E-05
 
 Number of occupied/virtual/auxiliary orbitals:    40   121   410
    594.35 MB is the minimal memory requirement for (T)
    429.04 MB is the minimal memory requirement for CCSD
 
 MP2 correlation energy [au]:       -1.236180154270
 
 LMP2 domain correlation energy contribution [au]:       -0.058839959488
 
 CPU time [min]:   463.736                   Wall time [min]:    66.966
 
 
 Starting CCSD iterations...
 
                     Residual norm       Correlation Energy
 Iteration  1        0.250636944132       -1.246043614359
 Iteration  2        0.077427630559       -1.278262563244
 Iteration  3        0.028295303206       -1.284392999158
 Iteration  4        0.006980597213       -1.284708605186
 Iteration  5        0.002558802789       -1.284645144303
 Iteration  6        0.000903863175       -1.284635762862
 Iteration  7        0.000417842585       -1.284632547207
 Iteration  8        0.000158702874       -1.284629538522
 Iteration  9        0.000065523051       -1.284629466653
 
 CCSD iteration has converged in  9 steps.
     1210.68 MB memory was utilized by CCSD
 
 T1 diagnostic:      1.423E-02            D1 diagnostic:      4.648E-02
 
 T1 contribution [au]:                         0.000000000000
 CCSD correlation energy [au]:                -0.058675477128
 
 CPU time [min]:   473.222                   Wall time [min]:    68.348
 
 Calculation of (T) correction...
 
 Laplace threshold, nquadmin:  1.00E-03   4
 Number of quadrature points:    4
 
     1223.05 MB memory is utilized for (T)

 0%       25%       50%       75%       100%
 |---------|---------|---------|---------| 
 
 (T) correction [au]:                   -0.001909642498
 CCSD(T) correlation energy [au]:       -0.060585119625
 
 CPU time [min]:   483.550                   Wall time [min]:    69.678
 
 MO:    71
 Number of atoms in domain:      24
 Number of atomic orbitals:     527
 Number of atoms for local DF:   24
 Number of fitting functions:  1748 (100.00%)
 Number of occupied orbitals:    69
 Number of virtual  orbitals:   410
 Number of Cholesky vectors:      6
 MP2 energy in ED [au]:          -0.056003491308
 Number of occupied LNOs:        33  (47.83%)
 Number of virtual  LNOs:        99  (24.15%)
 Number of Cholesky vectors:      5
 MP2 energy in LIS [au]:         -0.055840103277
 Correction for frozen LNO [au]: -0.000163388031     (0.292%)
 Number of NAFs:                331  (18.94%)
 CPU time [min]:   486.018                   Wall time [min]:    70.073
 

 Direct DF-CCSD(T) calculation
 
 Convergence criterion:  1.0E-05
 
 Number of occupied/virtual/auxiliary orbitals:    33    99   331
    318.77 MB is the minimal memory requirement for (T)
    234.85 MB is the minimal memory requirement for CCSD
 
 MP2 correlation energy [au]:       -1.136365302646
 
 LMP2 domain correlation energy contribution [au]:       -0.055867373761
 
 CPU time [min]:   486.082                   Wall time [min]:    70.086
 
 
 Starting CCSD iterations...
 
                     Residual norm       Correlation Energy
 Iteration  1        0.215194470239       -1.140720204462
 Iteration  2        0.061409323846       -1.164098528930
 Iteration  3        0.021359877312       -1.168415044492
 Iteration  4        0.004097693409       -1.168557345229
 Iteration  5        0.001160936363       -1.168546874444
 Iteration  6        0.000273628694       -1.168549505121
 Iteration  7        0.000086024878       -1.168546246783
 
 CCSD iteration has converged in  7 steps.
      577.99 MB memory was utilized by CCSD
 
 T1 diagnostic:      1.169E-02            D1 diagnostic:      3.474E-02
 
 T1 contribution [au]:                         0.000000000000
 CCSD correlation energy [au]:                -0.056330496017
 
 CPU time [min]:   488.953                   Wall time [min]:    70.485
 
 Calculation of (T) correction...
 
 Laplace threshold, nquadmin:  1.00E-03   4
 Number of quadrature points:    4
 
      595.10 MB memory is utilized for (T)

 0%       25%       50%       75%       100%
 |---------|---------|---------|---------| 
 
 (T) correction [au]:                   -0.001460732529
 CCSD(T) correlation energy [au]:       -0.057791228546
 
 CPU time [min]:   492.416                   Wall time [min]:    70.927
 
 MO:    72
 Number of atoms in domain:      24
 Number of atomic orbitals:     527
 Number of atoms for local DF:   24
 Number of fitting functions:  1748 (100.00%)
 Number of occupied orbitals:    68
 Number of virtual  orbitals:   410
 Number of Cholesky vectors:      6
 MP2 energy in ED [au]:          -0.056001802744
 Number of occupied LNOs:        32  (47.06%)
 Number of virtual  LNOs:        99  (24.15%)
 Number of Cholesky vectors:      5
 MP2 energy in LIS [au]:         -0.055839021788
 Correction for frozen LNO [au]: -0.000162780956     (0.291%)
 Number of NAFs:                329  (18.82%)
 CPU time [min]:   494.853                   Wall time [min]:    71.317
 

 Direct DF-CCSD(T) calculation
 
 Convergence criterion:  1.0E-05
 
 Number of occupied/virtual/auxiliary orbitals:    32    99   329
    309.76 MB is the minimal memory requirement for (T)
    226.76 MB is the minimal memory requirement for CCSD
 
 MP2 correlation energy [au]:       -1.114235610747
 
 LMP2 domain correlation energy contribution [au]:       -0.055865583190
 
 CPU time [min]:   494.916                   Wall time [min]:    71.331
 
 
 Starting CCSD iterations...
 
                     Residual norm       Correlation Energy
 Iteration  1        0.214990262815       -1.119877683789
 Iteration  2        0.060817490137       -1.143193928841
 Iteration  3        0.021064727025       -1.147333312396
 Iteration  4        0.004121002734       -1.147473111206
 Iteration  5        0.001161832893       -1.147466557578
 Iteration  6        0.000271767730       -1.147469579630
 Iteration  7        0.000083794378       -1.147466497420
 
 CCSD iteration has converged in  7 steps.
      570.68 MB memory was utilized by CCSD
 
 T1 diagnostic:      1.201E-02            D1 diagnostic:      3.442E-02
 
 T1 contribution [au]:                         0.000000000000
 CCSD correlation energy [au]:                -0.056329850856
 
 CPU time [min]:   497.678                   Wall time [min]:    71.724
 
 Calculation of (T) correction...
 
 Laplace threshold, nquadmin:  1.00E-03   4
 Number of quadrature points:    4
 
      574.27 MB memory is utilized for (T)

 0%       25%       50%       75%       100%
 |---------|---------|---------|---------| 
 
 (T) correction [au]:                   -0.001460118497
 CCSD(T) correlation energy [au]:       -0.057789969352
 
 CPU time [min]:   500.910                   Wall time [min]:    72.136
 
 MO:    73
 Number of atoms in domain:      24
 Number of atomic orbitals:     527
 Number of atoms for local DF:   24
 Number of fitting functions:  1748 (100.00%)
 Number of occupied orbitals:    59
 Number of virtual  orbitals:   410
 Number of Cholesky vectors:      6
 MP2 energy in ED [au]:          -0.059184837581
 Number of occupied LNOs:        41  (69.49%)
 Number of virtual  LNOs:       122  (29.76%)
 Number of Cholesky vectors:      5
 MP2 energy in LIS [au]:         -0.059043575316
 Correction for frozen LNO [au]: -0.000141262265     (0.239%)
 Number of NAFs:                424  (24.26%)
 CPU time [min]:   503.530                   Wall time [min]:    72.551
 

 Direct DF-CCSD(T) calculation
 
 Convergence criterion:  1.0E-05
 
 Number of occupied/virtual/auxiliary orbitals:    41   122   424
    624.89 MB is the minimal memory requirement for (T)
    452.80 MB is the minimal memory requirement for CCSD
 
 MP2 correlation energy [au]:       -1.319947482052
 
 LMP2 domain correlation energy contribution [au]:       -0.059065198698
 
 CPU time [min]:   503.643                   Wall time [min]:    72.587
 
 
 Starting CCSD iterations...
 
                     Residual norm       Correlation Energy
 Iteration  1        0.254852079765       -1.317486842670
 Iteration  2        0.082194707217       -1.351123235089
 Iteration  3        0.030071177891       -1.358448376772
 Iteration  4        0.006972841840       -1.358602254447
 Iteration  5        0.002628913901       -1.358530322879
 Iteration  6        0.000873052177       -1.358550888342
 Iteration  7        0.000389510392       -1.358554942654
 Iteration  8        0.000141767506       -1.358547501313
 Iteration  9        0.000053187285       -1.358545621688
 
 CCSD iteration has converged in  9 steps.
     1259.95 MB memory was utilized by CCSD
 
 T1 diagnostic:      1.369E-02            D1 diagnostic:      5.037E-02
 
 T1 contribution [au]:                         0.000000000000
 CCSD correlation energy [au]:                -0.058972746261
 
 CPU time [min]:   514.121                   Wall time [min]:    74.112
 
 Calculation of (T) correction...
 
 Laplace threshold, nquadmin:  1.00E-03   4
 Number of quadrature points:    4
 
     1289.35 MB memory is utilized for (T)

 0%       25%       50%       75%       100%
 |---------|---------|---------|---------| 
 
 (T) correction [au]:                   -0.001940587328
 CCSD(T) correlation energy [au]:       -0.060913333589
 
 CPU time [min]:   525.598                   Wall time [min]:    75.580
 
 **********************************************************************
 Dimensions of the extended domains:    Minimum / Average / Maximum
 
 Number of atoms in domain:                  24      24.0        24
 Number of atomic orbitals:                 527     527.0       527
 Number of fitting functions:              1460    1629.6      1748
 Number of occupied localized MOs:           21      44.1        73
 Number of PAOs:                            390     402.6       410
 Number of occupied LNOs:                     9      26.1        41
 Number of virtual  LNOs:                    40      80.3       122
 Number of NAFs:                            112     264.4       424
 
 **********************************************************************
 Distant (and weak) pair contributions, corrections
 
 Sum of pair energies [au]:                    -0.001055514180    (0.025%)
 Sum of energy corrections [au]:               -0.007716112124    (0.185%)
 Pair energies + LNO corrections [au]:         -0.008771626304
 Sum of LMP2 contributions [au]:               -4.177854013702
 
 **********************************************************************
  Time of manipulations in the EDs:      max CPU/Wall [s]  all CPU/Wall [min]
 
 PD construction & multipole pair E     122.10    15.67     2.03     0.26
 Construct MO basis of the ED             2.17     0.45     1.80     0.24
 (mu,nu|P) evaluation & trf 2 (ai|P)     49.07     6.18    36.27     4.55
 Evaluate MP2 energy of the ED           12.52     1.57     8.21     1.03
 Transformations to the LNO basis         4.48     0.58     3.11     0.39
 Build W_PQ (Jai or Jpi part)             0.78     0.10     0.55     0.07
 Evaluate MP2 energy of the LIS           0.60     0.07     0.25     0.03
 (mu,nu|P) evaluation & trf 2 J(abQ)     94.14    16.99    69.61    14.13
 Total of the above for all EDs         163.76    25.94   119.79    20.43
 
 **********************************************************************
 Maximum memory requirement [MB]:       
 
 PD construction & multipole pair E         48.1
 AO integral evaluation in the EDs          61.5
 (mu,nu|P) evaluation & trf 2 (aI|P)      1188.2
 Evaluate MP2 energy in the EDs           1103.1
 Transformation to the LNO basis           433.8
 (mu,nu|P) to Jab transformation           358.0
 Evaluate MP2 energy in the LIS            451.4
 Minimum requirement for LIS CCSD          452.8
 Actually allocated  for LIS CCSD         1260.0
 Minimum requirement for LIS (T)           624.9
 Actually allocated  for LIS (T)          1289.3
 
 ======================================================================
 ======================================================================
 
 
 
 ======================================================================
 ======================================================================
 
 Final local CC results:
 
 Minimum number of correlated electrons:        18       ( 12.3%)
 Maximum number of correlated electrons:        82       ( 56.2%)
 Average number of correlated electrons:        52.1     ( 35.7%)
 Minimum number of correlated orbitals:         49       ( 10.1%)
 Maximum number of correlated orbitals:        163       ( 33.7%)
 Average number of correlated orbitals:        106.4     ( 22.0%)
 
 CPU time for integral calculations [min]:                  1.424
 Wall time for integral calculations [min]:                 0.849
 
 CPU time for SCF calculation [min]:                       20.770
 Wall time for SCF calculation [min]:                       2.633
 
 CPU time for orbital localization [min]:                   0.090
 Wall time for orbital localization [min]:                  0.043
 
 CPU time for integral transformations [min]:             126.237
 Wall time for integral transformations [min]:             21.271
 
 Reference energy [au]:                                -11690.789317014263
 
 LMP2 correlation energy [au]:                             -4.177854013702
 Total LMP2 energy [au]:                               -11694.967171027965
 
 Total MP2 correction for dropped NAFs [au]:                0.001813001591
 Total MP2 correction [au]:                                -0.006958624713
 
 CPU time for CCSD calculations [min]:                    192.692
 Total CPU time for CCSD [min]:                           341.214
 Wall time for CCSD calculations [min]:                    27.847
 Total wall time for CCSD [min]:                           52.644
 
 CCSD correlation energy [au]:                             -4.193469941634
 Total CCSD energy [au]:                               -11694.982786955898
 CCSD correlation energy + 0.5 MP2 corrections [au]:       -4.196949253990
 Total LNO-CCSD energy with MP2 corrections [au]:      -11694.986266268254
 
 CPU time for (T) corrections [min]:                      206.676
 Total CPU time for CCSD(T) [min]:                        547.890
 Wall time for (T) corrections [min]:                      26.463
 Total wall time for CCSD(T) [min]:                        79.108
 
 Total (T) correlation energy contribution [au]:           -0.119421326448
 Total (T) correlation energy+0.5 MP2 correction [au]:     -0.122900638804
 CCSD(T) correlation energy [au]:                          -4.312891268082
 Total CCSD(T) energy [au]:                            -11695.102208282346
 CCSD(T) correlation energy + MP2 corrections [au]:        -4.319849892795
 Total LNO-CCSD(T) energy with MP2 corrections [au]:   -11695.109166907057
 
 ======================================================================
 ======================================================================
 
 ************************ 2024-11-25 17:29:37 *************************
                      Normal termination of mrcc.
 **********************************************************************
