 vasp.6.3.0 20Jan22 (build Mar 11 2022 13:48:16) complex

 executed on             LinuxIFC date 2023.12.26  16:45:25
 running on  304 total cores
 distrk:  each k-point on  304 cores,    1 groups
 distr:  one band on NCORE=   2 cores,  152 groups


--------------------------------------------------------------------------------------------------------


 INCAR:
   SYSTEM = MgO-rocksalt
   ISMEAR = 0
   SIGMA = 0.05
   EDIFF = 1E-6
   ALGO = ALL
   ISTART = 0
   IBRION = -1
   NSW = 0
   ISYM = 2
   ISIF = 2
   EDIFFG = -0.01
   DIPOL = 0.5 0.5 0.5
   IDIPOL = 3
   LDIPOL = .TRUE.
   GGA = PE
   IVDW = 1
   VDW_C6 = 0.63 0.70
   VDW_R0 = 1.243 1.342
   ENCUT = 600
   PREC = Accurate
   LASPH = .TRUE.
   LREAL = .FALSE.
   ISPIN = 1
   NELM = 200
   NELMIN = 8
   NCORE = 2
   KPAR = 1
   LWAVE = .FALSE.
   LCHARG = .FALSE.

 POTCAR:    PAW_PBE Mg_pv 13Apr2007
 POTCAR:    PAW_PBE O 08Apr2002
 -----------------------------------------------------------------------------
|                                                                             |
|           W    W    AA    RRRRR   N    N  II  N    N   GGGG   !!!           |
|           W    W   A  A   R    R  NN   N  II  NN   N  G    G  !!!           |
|           W    W  A    A  R    R  N N  N  II  N N  N  G       !!!           |
|           W WW W  AAAAAA  RRRRR   N  N N  II  N  N N  G  GGG   !            |
|           WW  WW  A    A  R   R   N   NN  II  N   NN  G    G                |
|           W    W  A    A  R    R  N    N  II  N    N   GGGG   !!!           |
|                                                                             |
|     For optimal performance we recommend to set                             |
|       NCORE = 2 up to number-of-cores-per-socket                            |
|     NCORE specifies how many cores store one orbital (NPAR=cpu/NCORE).      |
|     This setting can greatly improve the performance of VASP for DFT.       |
|     The default, NCORE=1 might be grossly inefficient on modern             |
|     multi-core architectures or massively parallel machines. Do your        |
|     own testing! More info at https://www.vasp.at/wiki/index.php/NCORE      |
|     Unfortunately you need to use the default for GW and RPA                |
|     calculations (for HF NCORE is supported but not extensively tested      |
|     yet).                                                                   |
|                                                                             |
 -----------------------------------------------------------------------------

 POTCAR:    PAW_PBE Mg_pv 13Apr2007
   SHA256 =  f474ac0dd33840b9ae76c01d57fea79fdf77cdfbb07d5ade72c65f83c709b62b Mg_pv/POTCAR
   COPYR  = (c) Copyright 13Apr2007 Georg Kresse
   COPYR  = This file is part of the software VASP. Any use, copying, and all other rights are regul
   COPYR  = If you do not have a valid VASP license, you may not use, copy or distribute this file.
   VRHFIN =Mg: p6s2
   LEXCH  = PE
   EATOM  =  1056.7344 eV,   77.6678 Ry

   TITEL  = PAW_PBE Mg_pv 13Apr2007
   LULTRA =        F    use ultrasoft PP ?
   IUNSCR =        1    unscreen: 0-lin 1-nonlin 2-no
   RPACOR =    1.500    partial core radius
   POMASS =   24.305; ZVAL   =    8.000    mass and valenz
   RCORE  =    2.000    outmost cutoff radius
   RWIGS  =    2.000; RWIGS  =    1.058    wigner-seitz radius (au A)
   ENMAX  =  403.929; ENMIN  =  302.947 eV
   RCLOC  =    1.506    cutoff for local pot
   LCOR   =        T    correct aug charges
   LPAW   =        T    paw PP
   EAUG   =  758.780
   DEXC   =    0.000
   RMAX   =    2.045    core radius for proj-oper
   RAUG   =    1.300    factor for augmentation sphere
   RDEP   =    2.025    radius for radial grids
   RDEPT  =    1.557    core radius for aug-charge

   Atomic configuration
    5 entries
     n  l   j            E        occ.
     1  0  0.50     -1259.6230   2.0000
     2  0  0.50       -79.8442   2.0000
     2  1  1.50       -46.6121   6.0000
     3  0  0.50        -4.7055   2.0000
     3  2  1.50        -1.3606   0.0000
   Description
     l       E           TYP  RCUT    TYP  RCUT
     1    -46.6121073     23  1.600
     1      2.7211652     23  1.600
     0     -4.7054661     23  2.000
     0     61.2262170     23  2.000
     2     -1.3605826     23  2.000
  local pseudopotential read in
  partial core-charges read in
  partial kinetic energy density read in
  atomic valenz-charges read in
  non local Contribution for L=           1  read in
    real space projection operators read in
  non local Contribution for L=           1  read in
    real space projection operators read in
  non local Contribution for L=           0  read in
    real space projection operators read in
  non local Contribution for L=           0  read in
    real space projection operators read in
  non local Contribution for L=           2  read in
    real space projection operators read in
    PAW grid and wavefunctions read in

   number of l-projection  operators is LMAX  =           5
   number of lm-projection operators is LMMAX =          13

 POTCAR:    PAW_PBE O 08Apr2002
   SHA256 =  818f92134a0a090dccd8ba1447fa70422a3b330e708bb4f08108d8ae51209ddf O/POTCAR
   COPYR  = (c) Copyright 08Apr2002 Georg Kresse
   COPYR  = This file is part of the software VASP. Any use, copying, and all other rights are regul
   COPYR  = If you do not have a valid VASP license, you may not use, copy or distribute this file.
   VRHFIN =O: s2p4
   LEXCH  = PE
   EATOM  =   432.3788 eV,   31.7789 Ry

   TITEL  = PAW_PBE O 08Apr2002
   LULTRA =        F    use ultrasoft PP ?
   IUNSCR =        1    unscreen: 0-lin 1-nonlin 2-no
   RPACOR =    1.200    partial core radius
   POMASS =   16.000; ZVAL   =    6.000    mass and valenz
   RCORE  =    1.520    outmost cutoff radius
   RWIGS  =    1.550; RWIGS  =    0.820    wigner-seitz radius (au A)
   ENMAX  =  400.000; ENMIN  =  300.000 eV
   ICORE  =        2    local potential
   LCOR   =        T    correct aug charges
   LPAW   =        T    paw PP
   EAUG   =  605.392
   DEXC   =    0.000
   RMAX   =    1.553    core radius for proj-oper
   RAUG   =    1.300    factor for augmentation sphere
   RDEP   =    1.550    radius for radial grids
   RDEPT  =    1.329    core radius for aug-charge

   Atomic configuration
    4 entries
     n  l   j            E        occ.
     1  0  0.50      -514.6923   2.0000
     2  0  0.50       -23.9615   2.0000
     2  1  0.50        -9.0305   4.0000
     3  2  1.50        -9.5241   0.0000
   Description
     l       E           TYP  RCUT    TYP  RCUT
     0    -23.9615318     23  1.200
     0     -9.5240782     23  1.200
     1     -9.0304911     23  1.520
     1      8.1634956     23  1.520
     2     -9.5240782      7  1.500
  local pseudopotential read in
  partial core-charges read in
  partial kinetic energy density read in
  kinetic energy density of atom read in
  atomic valenz-charges read in
  non local Contribution for L=           0  read in
    real space projection operators read in
  non local Contribution for L=           0  read in
    real space projection operators read in
  non local Contribution for L=           1  read in
    real space projection operators read in
  non local Contribution for L=           1  read in
    real space projection operators read in
    PAW grid and wavefunctions read in

   number of l-projection  operators is LMAX  =           4
   number of lm-projection operators is LMMAX =           8

 -----------------------------------------------------------------------------
|                                                                             |
|               ----> ADVICE to this user running VASP <----                  |
|                                                                             |
|     You have a (more or less) 'large supercell' and for larger cells it     |
|     might be more efficient to use real-space projection operators.         |
|     Therefore, try LREAL= Auto in the INCAR file.                           |
|     Mind: For very accurate calculation, you might also keep the            |
|     reciprocal projection scheme (i.e. LREAL=.FALSE.).                      |
|                                                                             |
 -----------------------------------------------------------------------------

  PAW_PBE Mg_pv 13Apr2007               :
 energy of atom  1       EATOM=-1056.7344
 kinetic energy error for atom=    0.0221 (will be added to EATOM!!)
  PAW_PBE O 08Apr2002                   :
 energy of atom  2       EATOM= -432.3788
 kinetic energy error for atom=    0.0168 (will be added to EATOM!!)


 POSCAR: Mg  O
  positions in direct lattice
  velocities in cartesian coordinates
 exchange correlation table for  LEXCH =        8
   RHO(1)=    0.500       N(1)  =     2000
   RHO(2)=  100.500       N(2)  =     4000



--------------------------------------------------------------------------------------------------------


 ion  position               nearest neighbor table
   1  0.250  0.000  0.351-  33 2.12  35 2.12  36 2.12  43 2.12  52 2.12
   2  0.500  0.250  0.351-  34 2.12  35 2.12  36 2.12  44 2.12  51 2.12
   3  0.250  0.250  0.450-  35 2.12  34 2.12  33 2.12  41 2.12  50 2.12  39 2.12
   4  0.500  0.000  0.450-  36 2.12  34 2.12  33 2.12  42 2.12  49 2.12  40 2.12
   5  0.250  0.000  0.550-  39 2.12  40 2.12  47 2.12  56 2.12  33 2.13  37 2.15
   6  0.500  0.250  0.550-  39 2.12  40 2.12  48 2.12  55 2.12  34 2.13  38 2.15
   7  0.250  0.250  0.649-  39 2.11  38 2.12  37 2.12  45 2.12  54 2.12
   8  0.500  0.000  0.649-  40 2.11  38 2.12  37 2.12  46 2.12  53 2.12
   9  0.250  0.500  0.351-  41 2.12  35 2.12  43 2.12  44 2.12  60 2.12
  10  0.500  0.750  0.351-  42 2.12  36 2.12  43 2.12  44 2.12  59 2.12
  11  0.250  0.750  0.450-  43 2.12  41 2.12  42 2.12  33 2.12  58 2.12  47 2.12
  12  0.500  0.500  0.450-  44 2.12  41 2.12  42 2.12  34 2.12  57 2.12  48 2.12
  13  0.250  0.500  0.550-  39 2.12  47 2.12  48 2.12  64 2.12  41 2.13  45 2.15
  14  0.500  0.750  0.550-  40 2.12  47 2.12  48 2.12  63 2.12  42 2.13  46 2.15
  15  0.250  0.750  0.649-  47 2.11  45 2.12  46 2.12  37 2.12  62 2.12
  16  0.500  0.500  0.649-  48 2.11  45 2.12  46 2.12  38 2.12  61 2.12
  17  0.750  0.000  0.351-  49 2.12  36 2.12  51 2.12  52 2.12  59 2.12
  18  0.000  0.250  0.351-  50 2.12  35 2.12  51 2.12  52 2.12  60 2.12
  19  0.750  0.250  0.450-  51 2.12  49 2.12  50 2.12  34 2.12  57 2.12  55 2.12
  20  0.000  0.000  0.450-  52 2.12  49 2.12  50 2.12  33 2.12  58 2.12  56 2.12
  21  0.750  0.000  0.550-  40 2.12  55 2.12  56 2.12  63 2.12  49 2.13  53 2.15
  22  0.000  0.250  0.550-  39 2.12  55 2.12  56 2.12  64 2.12  50 2.13  54 2.15
  23  0.750  0.250  0.649-  55 2.11  53 2.12  54 2.12  38 2.12  61 2.12
  24  0.000  0.000  0.649-  56 2.11  53 2.12  54 2.12  37 2.12  62 2.12
  25  0.750  0.500  0.351-  57 2.12  51 2.12  44 2.12  59 2.12  60 2.12
  26  0.000  0.750  0.351-  58 2.12  52 2.12  43 2.12  59 2.12  60 2.12
  27  0.750  0.750  0.450-  59 2.12  49 2.12  57 2.12  58 2.12  42 2.12  63 2.12
  28  0.000  0.500  0.450-  60 2.12  50 2.12  57 2.12  58 2.12  41 2.12  64 2.12
  29  0.750  0.500  0.550-  48 2.12  55 2.12  63 2.12  64 2.12  57 2.13  61 2.15
  30  0.000  0.750  0.550-  47 2.12  56 2.12  63 2.12  64 2.12  58 2.13  62 2.15
  31  0.750  0.750  0.649-  63 2.11  53 2.12  61 2.12  62 2.12  46 2.12
  32  0.000  0.500  0.649-  64 2.11  54 2.12  61 2.12  62 2.12  45 2.12
  33  0.250  0.000  0.450-   1 2.12   3 2.12   4 2.12  11 2.12  20 2.12   5 2.13
  34  0.500  0.250  0.450-   2 2.12   3 2.12   4 2.12  12 2.12  19 2.12   6 2.13
  35  0.250  0.250  0.351-   3 2.12   2 2.12   1 2.12   9 2.12  18 2.12
  36  0.500  0.000  0.351-   4 2.12   2 2.12   1 2.12  10 2.12  17 2.12
  37  0.250  0.000  0.651-   7 2.12   8 2.12  15 2.12  24 2.12   5 2.15
  38  0.500  0.250  0.651-   7 2.12   8 2.12  16 2.12  23 2.12   6 2.15
  39  0.250  0.250  0.550-   7 2.11   6 2.12   5 2.12  13 2.12  22 2.12   3 2.12
  40  0.500  0.000  0.550-   8 2.11   6 2.12   5 2.12  14 2.12  21 2.12   4 2.12
  41  0.250  0.500  0.450-   9 2.12   3 2.12  11 2.12  12 2.12  28 2.12  13 2.13
  42  0.500  0.750  0.450-  10 2.12   4 2.12  11 2.12  12 2.12  27 2.12  14 2.13
  43  0.250  0.750  0.351-  11 2.12   9 2.12  10 2.12   1 2.12  26 2.12
  44  0.500  0.500  0.351-  12 2.12   9 2.12  10 2.12   2 2.12  25 2.12
  45  0.250  0.500  0.651-   7 2.12  15 2.12  16 2.12  32 2.12  13 2.15
  46  0.500  0.750  0.651-   8 2.12  15 2.12  16 2.12  31 2.12  14 2.15
  47  0.250  0.750  0.550-  15 2.11  13 2.12  14 2.12   5 2.12  30 2.12  11 2.12
  48  0.500  0.500  0.550-  16 2.11  13 2.12  14 2.12   6 2.12  29 2.12  12 2.12
  49  0.750  0.000  0.450-  17 2.12   4 2.12  19 2.12  20 2.12  27 2.12  21 2.13
  50  0.000  0.250  0.450-  18 2.12   3 2.12  19 2.12  20 2.12  28 2.12  22 2.13
  51  0.750  0.250  0.351-  19 2.12  17 2.12  18 2.12   2 2.12  25 2.12
  52  0.000  0.000  0.351-  20 2.12  17 2.12  18 2.12   1 2.12  26 2.12
  53  0.750  0.000  0.651-   8 2.12  23 2.12  24 2.12  31 2.12  21 2.15
  54  0.000  0.250  0.651-   7 2.12  23 2.12  24 2.12  32 2.12  22 2.15
  55  0.750  0.250  0.550-  23 2.11  21 2.12  22 2.12   6 2.12  29 2.12  19 2.12
  56  0.000  0.000  0.550-  24 2.11  21 2.12  22 2.12   5 2.12  30 2.12  20 2.12
  57  0.750  0.500  0.450-  25 2.12  19 2.12  12 2.12  27 2.12  28 2.12  29 2.13
  58  0.000  0.750  0.450-  26 2.12  20 2.12  11 2.12  27 2.12  28 2.12  30 2.13
  59  0.750  0.750  0.351-  27 2.12  17 2.12  25 2.12  26 2.12  10 2.12
  60  0.000  0.500  0.351-  28 2.12  18 2.12  25 2.12  26 2.12   9 2.12
  61  0.750  0.500  0.651-  16 2.12  23 2.12  31 2.12  32 2.12  29 2.15
  62  0.000  0.750  0.651-  15 2.12  24 2.12  31 2.12  32 2.12  30 2.15
  63  0.750  0.750  0.550-  31 2.11  21 2.12  29 2.12  30 2.12  14 2.12  27 2.12
  64  0.000  0.500  0.550-  32 2.11  22 2.12  29 2.12  30 2.12  13 2.12  28 2.12

  LATTYP: Found a simple tetragonal cell.
 ALAT       =     8.4671426306
 C/A-ratio  =     2.5215539532

  Lattice vectors:

 A1 = (   8.4671426306,   0.0000000000,   0.0000000000)
 A2 = (   0.0000000000,   8.4671426306,   0.0000000000)
 A3 = (   0.0000000000,   0.0000000000,  21.3503569730)


Analysis of symmetry for initial positions (statically):
=====================================================================
 Subroutine PRICEL returns following result:

  LATTYP: Found a simple tetragonal cell.
 ALAT       =     2.9935869857
 C/A-ratio  =     7.1320315979

  Lattice vectors:

 A1 = (   2.1167856577,  -2.1167856577,   0.0000000000)
 A2 = (   2.1167856577,   2.1167856577,   0.0000000000)
 A3 = (   0.0000000000,   0.0000000000,  21.3503569730)

   8 primitive cells build up your supercell.


 Routine SETGRP: Setting up the symmetry group for a
 simple tetragonal supercell.


 Subroutine GETGRP returns: Found  8 space group operations
 (whereof  8 operations were pure point group operations)
 out of a pool of 16 trial point group operations.


The static configuration has the point symmetry C_4v.


Analysis of symmetry for dynamics (positions and initial velocities):
=====================================================================
 Subroutine PRICEL returns following result:

  LATTYP: Found a simple tetragonal cell.
 ALAT       =     2.9935869857
 C/A-ratio  =     7.1320315979

  Lattice vectors:

 A1 = (   2.1167856577,  -2.1167856577,   0.0000000000)
 A2 = (   2.1167856577,   2.1167856577,   0.0000000000)
 A3 = (   0.0000000000,   0.0000000000,  21.3503569730)

   8 primitive cells build up your supercell.


 Routine SETGRP: Setting up the symmetry group for a
 simple tetragonal supercell.


 Subroutine GETGRP returns: Found  8 space group operations
 (whereof  8 operations were pure point group operations)
 out of a pool of 16 trial point group operations.


The dynamic configuration has the point symmetry C_4v.


Analysis of constrained symmetry for selective dynamics:
=====================================================================
 Subroutine PRICEL returns following result:

  LATTYP: Found a simple tetragonal cell.
 ALAT       =     2.9935869857
 C/A-ratio  =     7.1320315979

  Lattice vectors:

 A1 = (   2.1167856577,  -2.1167856577,   0.0000000000)
 A2 = (   2.1167856577,   2.1167856577,   0.0000000000)
 A3 = (   0.0000000000,   0.0000000000,  21.3503569730)

   8 primitive cells build up your supercell.


 Routine SETGRP: Setting up the symmetry group for a
 simple tetragonal supercell.


 Subroutine GETGRP returns: Found  8 space group operations
 (whereof  8 operations were pure point group operations)
 out of a pool of 16 trial point group operations.


The constrained configuration has the point symmetry C_4v.


 Subroutine INISYM returns: Found  8 space group operations
 (whereof  8 operations are pure point group operations),
 and found     8 'primitive' translations


----------------------------------------------------------------------------------------

                                     Primitive cell

  volume of cell :     191.3326

  direct lattice vectors                    reciprocal lattice vectors
     2.116785658 -2.116785658  0.000000000     0.236207194 -0.236207194  0.000000000
     2.116785658  2.116785658  0.000000000     0.236207194  0.236207194  0.000000000
     0.000000000  0.000000000 21.350356973     0.000000000  0.000000000  0.046837624

  length of vectors
     2.993586986  2.993586986 21.350356973     0.334047417  0.334047417  0.046837624

  position of ions in fractional coordinates (direct lattice)
     0.500000000  0.500000000  0.351282183
     0.000000000  0.000000000  0.450427394
     0.500000000  0.500000000  0.550191116
     0.000000000  0.000000000  0.648532086
     0.500000000  0.500000000  0.450427394
     0.000000000  0.000000000  0.351282183
     0.500000000  0.500000000  0.650785562
     0.000000000  0.000000000  0.549814593

  ion indices of the primitive-cell ions
   primitive index   ion index
                 1           1
                 2           3
                 3           5
                 4           7
                 5          33
                 6          35
                 7          37
                 8          39

----------------------------------------------------------------------------------------



 KPOINTS: pymatgen v2020.8.13 with grid density =

Automatic generation of k-mesh.
 Grid dimensions read from file:
 generate k-points for:    2    2    1

 Generating k-lattice:

  Cartesian coordinates                     Fractional coordinates (reciprocal lattice)
     0.059051798  0.000000000  0.000000000     0.500000000  0.000000000  0.000000000
     0.000000000  0.059051798  0.000000000     0.000000000  0.500000000  0.000000000
     0.000000000  0.000000000  0.046837624     0.000000000  0.000000000  1.000000000

  Length of vectors
     0.059051798  0.059051798  0.046837624

  Shift w.r.t. Gamma in fractional coordinates (k-lattice)
     0.000000000  0.000000000  0.000000000


 Subroutine IBZKPT returns following result:
 ===========================================

 Found      3 irreducible k-points:

 Following reciprocal coordinates:
            Coordinates               Weight
  0.000000  0.000000  0.000000      1.000000
  0.500000  0.000000  0.000000      2.000000
  0.500000  0.500000  0.000000      1.000000

 Following cartesian coordinates:
            Coordinates               Weight
  0.000000  0.000000  0.000000      1.000000
  0.059052  0.000000  0.000000      2.000000
  0.059052  0.059052  0.000000      1.000000



--------------------------------------------------------------------------------------------------------




 Dimension of arrays:
   k-points           NKPTS =      3   k-points in BZ     NKDIM =      3   number of bands    NBANDS=    304
   number of dos      NEDOS =    301   number of ions     NIONS =     64
   non local maximal  LDIM  =      5   non local SUM 2l+1 LMDIM =     13
   total plane-waves  NPLWV = 882000
   max r-space proj   IRMAX =      1   max aug-charges    IRDMAX=  11554
   dimension x,y,z NGX =    70 NGY =   70 NGZ =  180
   dimension x,y,z NGXF=   140 NGYF=  140 NGZF=  360
   support grid    NGXF=   140 NGYF=  140 NGZF=  360
   ions per type =              32  32
   NGX,Y,Z   is equivalent  to a cutoff of  13.74, 13.74, 14.02 a.u.
   NGXF,Y,Z  is equivalent  to a cutoff of  27.49, 27.49, 28.03 a.u.

 SYSTEM =  MgO-rocksalt
 POSCAR =  Mg  O

 Startparameter for this run:
   NWRITE =      2    write-flag & timer
   PREC   = accura    normal or accurate (medium, high low for compatibility)
   ISTART =      0    job   : 0-new  1-cont  2-samecut
   ICHARG =      2    charge: 1-file 2-atom 10-const
   ISPIN  =      1    spin polarized calculation?
   LNONCOLLINEAR =      F non collinear calculations
   LSORBIT =      F    spin-orbit coupling
   INIWAV =      1    electr: 0-lowe 1-rand  2-diag
   LASPH  =      T    aspherical Exc in radial PAW
 Electronic Relaxation 1
   ENCUT  =  600.0 eV  44.10 Ry    6.64 a.u.  16.91 16.91 42.64*2*pi/ulx,y,z
   ENINI  =  600.0     initial cutoff
   ENAUG  =  758.8 eV  augmentation charge cutoff
   NELM   =    200;   NELMIN=  8; NELMDL= -5     # of ELM steps
   EDIFF  = 0.1E-05   stopping-criterion for ELM
   LREAL  =      F    real-space projection
   NLSPLINE    = F    spline interpolate recip. space projectors
   LCOMPAT=      F    compatible to vasp.4.4
   GGA_COMPAT  = T    GGA compatible to vasp.4.4-vasp.4.6
   LMAXPAW     = -100 max onsite density
   LMAXMIX     =    2 max onsite mixed and CHGCAR
   VOSKOWN=      0    Vosko Wilk Nusair interpolation
   ROPT   =    0.00000   0.00000
 Ionic relaxation
   EDIFFG = -.1E-01   stopping-criterion for IOM
   NSW    =      0    number of steps for IOM
   NBLOCK =      1;   KBLOCK =      1    inner block; outer block
   IBRION =     -1    ionic relax: 0-MD 1-quasi-New 2-CG
   NFREE  =      0    steps in history (QN), initial steepest desc. (CG)
   ISIF   =      2    stress and relaxation
   IWAVPR =     10    prediction:  0-non 1-charg 2-wave 3-comb
   ISYM   =      2    0-nonsym 1-usesym 2-fastsym
   LCORR  =      T    Harris-Foulkes like correction to forces

   POTIM  = 0.5000    time-step for ionic-motion
   TEIN   =    0.0    initial temperature
   TEBEG  =    0.0;   TEEND  =   0.0 temperature during run
   SMASS  =  -3.00    Nose mass-parameter (am)
   estimated Nose-frequenzy (Omega)   =  0.10E-29 period in steps = 0.13E+47 mass=  -0.164E-26a.u.
   SCALEE = 1.0000    scale energy and forces
   NPACO  =    256;   APACO  = 10.0  distance and # of slots for P.C.
   PSTRESS=    0.0 pullay stress

  Mass of Ions in am
   POMASS =  24.30 16.00
  Ionic Valenz
   ZVAL   =   8.00  6.00
  Atomic Wigner-Seitz radii
   RWIGS  =  -1.00 -1.00
  virtual crystal weights
   VCA    =   1.00  1.00
   NELECT =     448.0000    total number of electrons
   NUPDOWN=      -1.0000    fix difference up-down

 DOS related values:
   EMIN   =  10.00;   EMAX   =-10.00  energy-range for DOS
   EFERMI =   0.00
   ISMEAR =     0;   SIGMA  =   0.05  broadening in eV -4-tet -1-fermi 0-gaus

 Electronic relaxation 2 (details)
   IALGO  =     58    algorithm
   LDIAG  =      T    sub-space diagonalisation (order eigenvalues)
   LSUBROT=      F    optimize rotation matrix (better conditioning)
   TURBO    =      0    0=normal 1=particle mesh
   IRESTART =      0    0=no restart 2=restart with 2 vectors
   NREBOOT  =      0    no. of reboots
   NMIN     =      0    reboot dimension
   EREF     =   0.00    reference energy to select bands
   IMIX   =      4    mixing-type and parameters
     AMIX     =   0.40;   BMIX     =  1.00
     AMIX_MAG =   1.60;   BMIX_MAG =  1.00
     AMIN     =   0.10
     WC   =   100.;   INIMIX=   1;  MIXPRE=   1;  MAXMIX= -45

 Intra band minimization:
   WEIMIN = 0.0000     energy-eigenvalue tresh-hold
   EBREAK =  0.82E-09  absolut break condition
   DEPER  =   0.30     relativ break condition

   TIME   =   0.40     timestep for ELM

  volume/ion in A,a.u.               =      23.92       161.40
  Fermi-wavevector in a.u.,A,eV,Ry     =   1.086946  2.054030 16.074618  1.181451
  Thomas-Fermi vector in A             =   2.223094

 Write flags
   LWAVE        =      F    write WAVECAR
   LDOWNSAMPLE  =      F    k-point downsampling of WAVECAR
   LCHARG       =      F    write CHGCAR
   LVTOT        =      F    write LOCPOT, total local potential
   LVHAR        =      F    write LOCPOT, Hartree potential only
   LELF         =      F    write electronic localiz. function (ELF)
   LORBIT       =      0    0 simple, 1 ext, 2 COOP (PROOUT), +10 PAW based schemes


 Dipole corrections
   LMONO  =      F    monopole corrections only (constant potential shift)
   LDIPOL =      T    correct potential (dipole corrections)
   IDIPOL =      3    1-x, 2-y, 3-z, 4-all directions
   EPSILON=  1.0000000 bulk dielectric constant

 Exchange correlation treatment:
   GGA     =    PE    GGA type
   LEXCH   =     8    internal setting for exchange type
   LIBXC   =     F    Libxc
   VOSKOWN =     0    Vosko Wilk Nusair interpolation
   LHFCALC =     F    Hartree Fock is set to
   LHFONE  =     F    Hartree Fock one center treatment
   AEXX    =    0.0000 exact exchange contribution

 Linear response parameters
   LEPSILON=     F    determine dielectric tensor
   LRPA    =     F    only Hartree local field effects (RPA)
   LNABLA  =     F    use nabla operator in PAW spheres
   LVEL    =     F    velocity operator in full k-point grid
   CSHIFT  =0.1000    complex shift for real part using Kramers Kronig
   OMEGAMAX=  -1.0    maximum frequency
   DEG_THRESHOLD= 0.2000000E-02 threshold for treating states as degnerate
   RTIME   =   -0.100 relaxation time in fs
  (WPLASMAI=    0.000 imaginary part of plasma frequency in eV, 0.658/RTIME)
   DFIELD  = 0.0000000 0.0000000 0.0000000 field for delta impulse in time

  Optional k-point grid parameters
   LKPOINTS_OPT  =     F    use optional k-point grid
   KPOINTS_OPT_MODE=     1    mode for optional k-point grid

 Orbital magnetization related:
   ORBITALMAG=     F  switch on orbital magnetization
   LCHIMAG   =     F  perturbation theory with respect to B field
   DQ        =  0.001000  dq finite difference perturbation B field
   LLRAUG    =     F  two centre corrections for induced B field



--------------------------------------------------------------------------------------------------------


 Static calculation
 charge density and potential will be updated during run
 non-spin polarized calculation
 Conjugate gradient for all bands (Freysoldt, et al. PRB 79, 241103 (2009))
 preconditioned conjugated gradient
 perform sub-space diagonalisation
    before iterative eigenvector-optimisation
 modified Broyden-mixing scheme, WC =      100.0
 initial mixing is a Kerker type mixing with AMIX =  0.4000 and BMIX =      1.0000
 Hartree-type preconditioning will be used
 using additional bands           80
 reciprocal scheme for non local part
 use partial core corrections
 no Harris-corrections to forces
 use gradient corrections
 use of overlap-Matrix (Vanderbilt PP)
 Gauss-broadening in eV      SIGMA  =   0.05


--------------------------------------------------------------------------------------------------------


  energy-cutoff  :      600.00
  volume of cell :     1530.66
      direct lattice vectors                 reciprocal lattice vectors
     8.467142631  0.000000000  0.000000000     0.118103597  0.000000000  0.000000000
     0.000000000  8.467142631  0.000000000     0.000000000  0.118103597  0.000000000
     0.000000000  0.000000000 21.350356973     0.000000000  0.000000000  0.046837624

  length of vectors
     8.467142631  8.467142631 21.350356973     0.118103597  0.118103597  0.046837624



 k-points in units of 2pi/SCALE and weight: pymatgen v2020.8.13 with grid density =
   0.00000000  0.00000000  0.00000000       0.250
   0.05905180  0.00000000  0.00000000       0.500
   0.05905180  0.05905180  0.00000000       0.250

 k-points in reciprocal lattice and weights: pymatgen v2020.8.13 with grid density =
   0.00000000  0.00000000  0.00000000       0.250
   0.50000000  0.00000000  0.00000000       0.500
   0.50000000  0.50000000  0.00000000       0.250

 position of ions in fractional coordinates (direct lattice)
   0.25000000  0.00000000  0.35128218
   0.50000000  0.25000000  0.35128218
   0.25000000  0.25000000  0.45042739
   0.50000000  0.00000000  0.45042739
   0.25000000  0.00000000  0.55019112
   0.50000000  0.25000000  0.55019112
   0.25000000  0.25000000  0.64853209
   0.50000000  0.00000000  0.64853209
   0.25000000  0.50000000  0.35128218
   0.50000000  0.75000000  0.35128218
   0.25000000  0.75000000  0.45042739
   0.50000000  0.50000000  0.45042739
   0.25000000  0.50000000  0.55019112
   0.50000000  0.75000000  0.55019112
   0.25000000  0.75000000  0.64853209
   0.50000000  0.50000000  0.64853209
   0.75000000  0.00000000  0.35128218
   0.00000000  0.25000000  0.35128218
   0.75000000  0.25000000  0.45042739
   0.00000000  0.00000000  0.45042739
   0.75000000  0.00000000  0.55019112
   0.00000000  0.25000000  0.55019112
   0.75000000  0.25000000  0.64853209
   0.00000000  0.00000000  0.64853209
   0.75000000  0.50000000  0.35128218
   0.00000000  0.75000000  0.35128218
   0.75000000  0.75000000  0.45042739
   0.00000000  0.50000000  0.45042739
   0.75000000  0.50000000  0.55019112
   0.00000000  0.75000000  0.55019112
   0.75000000  0.75000000  0.64853209
   0.00000000  0.50000000  0.64853209
   0.25000000  0.00000000  0.45042739
   0.50000000  0.25000000  0.45042739
   0.25000000  0.25000000  0.35128218
   0.50000000  0.00000000  0.35128218
   0.25000000  0.00000000  0.65078556
   0.50000000  0.25000000  0.65078556
   0.25000000  0.25000000  0.54981459
   0.50000000  0.00000000  0.54981459
   0.25000000  0.50000000  0.45042739
   0.50000000  0.75000000  0.45042739
   0.25000000  0.75000000  0.35128218
   0.50000000  0.50000000  0.35128218
   0.25000000  0.50000000  0.65078556
   0.50000000  0.75000000  0.65078556
   0.25000000  0.75000000  0.54981459
   0.50000000  0.50000000  0.54981459
   0.75000000  0.00000000  0.45042739
   0.00000000  0.25000000  0.45042739
   0.75000000  0.25000000  0.35128218
   0.00000000  0.00000000  0.35128218
   0.75000000  0.00000000  0.65078556
   0.00000000  0.25000000  0.65078556
   0.75000000  0.25000000  0.54981459
   0.00000000  0.00000000  0.54981459
   0.75000000  0.50000000  0.45042739
   0.00000000  0.75000000  0.45042739
   0.75000000  0.75000000  0.35128218
   0.00000000  0.50000000  0.35128218
   0.75000000  0.50000000  0.65078556
   0.00000000  0.75000000  0.65078556
   0.75000000  0.75000000  0.54981459
   0.00000000  0.50000000  0.54981459

 position of ions in cartesian coordinates  (Angst):
   2.11678566  0.00000000  7.50000000
   4.23357132  2.11678566  7.50000000
   2.11678566  2.11678566  9.61678566
   4.23357132  0.00000000  9.61678566
   2.11678566  0.00000000 11.74677673
   4.23357132  2.11678566 11.74677673
   2.11678566  2.11678566 13.84639155
   4.23357132  0.00000000 13.84639155
   2.11678566  4.23357132  7.50000000
   4.23357132  6.35035697  7.50000000
   2.11678566  6.35035697  9.61678566
   4.23357132  4.23357132  9.61678566
   2.11678566  4.23357132 11.74677673
   4.23357132  6.35035697 11.74677673
   2.11678566  6.35035697 13.84639155
   4.23357132  4.23357132 13.84639155
   6.35035697  0.00000000  7.50000000
   0.00000000  2.11678566  7.50000000
   6.35035697  2.11678566  9.61678566
   0.00000000  0.00000000  9.61678566
   6.35035697  0.00000000 11.74677673
   0.00000000  2.11678566 11.74677673
   6.35035697  2.11678566 13.84639155
   0.00000000  0.00000000 13.84639155
   6.35035697  4.23357132  7.50000000
   0.00000000  6.35035697  7.50000000
   6.35035697  6.35035697  9.61678566
   0.00000000  4.23357132  9.61678566
   6.35035697  4.23357132 11.74677673
   0.00000000  6.35035697 11.74677673
   6.35035697  6.35035697 13.84639155
   0.00000000  4.23357132 13.84639155
   2.11678566  0.00000000  9.61678566
   4.23357132  2.11678566  9.61678566
   2.11678566  2.11678566  7.50000000
   4.23357132  0.00000000  7.50000000
   2.11678566  0.00000000 13.89450407
   4.23357132  2.11678566 13.89450407
   2.11678566  2.11678566 11.73873783
   4.23357132  0.00000000 11.73873783
   2.11678566  4.23357132  9.61678566
   4.23357132  6.35035697  9.61678566
   2.11678566  6.35035697  7.50000000
   4.23357132  4.23357132  7.50000000
   2.11678566  4.23357132 13.89450407
   4.23357132  6.35035697 13.89450407
   2.11678566  6.35035697 11.73873783
   4.23357132  4.23357132 11.73873783
   6.35035697  0.00000000  9.61678566
   0.00000000  2.11678566  9.61678566
   6.35035697  2.11678566  7.50000000
   0.00000000  0.00000000  7.50000000
   6.35035697  0.00000000 13.89450407
   0.00000000  2.11678566 13.89450407
   6.35035697  2.11678566 11.73873783
   0.00000000  0.00000000 11.73873783
   6.35035697  4.23357132  9.61678566
   0.00000000  6.35035697  9.61678566
   6.35035697  6.35035697  7.50000000
   0.00000000  4.23357132  7.50000000
   6.35035697  4.23357132 13.89450407
   0.00000000  6.35035697 13.89450407
   6.35035697  6.35035697 11.73873783
   0.00000000  4.23357132 11.73873783



--------------------------------------------------------------------------------------------------------


 k-point   1 :   0.0000 0.0000 0.0000  plane waves:   50993
 k-point   2 :   0.5000 0.0000 0.0000  plane waves:   51062
 k-point   3 :   0.5000 0.5000 0.0000  plane waves:   51224

 maximum and minimum number of plane-waves per node :     25612    25492

 maximum number of plane-waves:     51224
 maximum index in each direction:
   IXMAX=   16   IYMAX=   16   IZMAX=   42
   IXMIN=  -17   IYMIN=  -17   IZMIN=  -42


 parallel 3D FFT for wavefunctions:
    minimum data exchange during FFTs selected (reduces bandwidth)
 parallel 3D FFT for charge:
    minimum data exchange during FFTs selected (reduces bandwidth)


 total amount of memory used by VASP MPI-rank0   115247. kBytes
=======================================================================

   base      :      30000. kBytes
   nonl-proj :      42333. kBytes
   fftplans  :      14616. kBytes
   grid      :      20512. kBytes
   one-center:        259. kBytes
   wavefun   :       7527. kBytes

     INWAV:  cpu time      0.0000: real time      0.0000
 Broyden mixing: mesh for mixing (old mesh)
   NGX = 33   NGY = 33   NGZ = 85
  (NGX  =140   NGY  =140   NGZ  =360)
  gives a total of  92565 points

 initial charge density was supplied:
 charge density of overlapping atoms calculated
 number of electron     448.0000000 magnetization
 keeping initial charge density in first step


--------------------------------------------------------------------------------------------------------


 Maximum index for augmentation-charges          604 (set IRDMAX)


--------------------------------------------------------------------------------------------------------


 First call to EWALD:  gamma=   0.154
 Maximum number of real-space cells 4x 4x 2
 Maximum number of reciprocal cells 2x 2x 5

    FEWALD:  cpu time      0.0014: real time      0.0014


--------------------------------------- Iteration      1(   1)  ---------------------------------------


    POTLOK:  cpu time      0.0555: real time      0.0671
    SETDIJ:  cpu time      0.0863: real time      0.0880
    TRIAL :  cpu time      3.2622: real time      3.3104
    CORREC:  cpu time      0.0003: real time      0.0003
    --------------------------------------------
      LOOP:  cpu time      3.4081: real time      3.4724

 eigenvalue-minimisations  :  2280
 total energy-change (2. order) : 0.3287009E+04  (-0.3062116E+05)
 number of electron     448.0000000 magnetization
 augmentation part      448.0000000 magnetization

 DIPCOR: dipole corrections for dipol
 direction  3 min pos     1,
 dipolmoment           0.000000      0.000000     -0.000003 electrons x Angstroem
 Tr[quadrupol]     -6001.709953

 energy correction for charged system         0.000000 eV
 dipol+quadrupol energy correction           -0.000000 eV
 added-field ion interaction          0.000001 eV  (added to PSCEN)


 Free energy of the ion-electron system (eV)
  ---------------------------------------------------
  alpha Z        PSCENC =       869.06037387
  Ewald energy   TEWEN  =    139573.22111719
  -Hartree energ DENC   =   -175072.40712293
  -exchange      EXHF   =         0.00000000
  -V(xc)+E(xc)   XCENC  =      1748.55425276
  PAW double counting   =     31854.93933934   -35687.86723865
  entropy T*S    EENTRO =        -0.02264321
  eigenvalues    EBANDS =     -7648.84541642
  atomic energy  EATOM  =     47650.37657287
  ---------------------------------------------------
  free energy    TOTEN  =      3287.00923481 eV

  energy without entropy =     3287.03187803  energy(sigma->0) =     3287.02055642


--------------------------------------------------------------------------------------------------------




--------------------------------------- Iteration      1(   2)  ---------------------------------------


    TRIAL :  cpu time      3.1195: real time      3.1327
    CORREC:  cpu time      0.0001: real time      0.0001
    --------------------------------------------
      LOOP:  cpu time      3.1212: real time      3.1368

 eigenvalue-minimisations  :  2280
 total energy-change (2. order) :-0.3522977E+04  (-0.3508929E+04)
 number of electron     448.0000000 magnetization
 augmentation part      448.0000000 magnetization

 DIPCOR: dipole corrections for dipol
 direction  3 min pos     1,
 dipolmoment           0.000000      0.000000     -0.000003 electrons x Angstroem
 Tr[quadrupol]     -6001.709953

 energy correction for charged system         0.000000 eV
 dipol+quadrupol energy correction           -0.000000 eV
 added-field ion interaction          0.000001 eV  (added to PSCEN)


 Free energy of the ion-electron system (eV)
  ---------------------------------------------------
  alpha Z        PSCENC =       869.06037387
  Ewald energy   TEWEN  =    139573.22111719
  -Hartree energ DENC   =   -175072.40712293
  -exchange      EXHF   =         0.00000000
  -V(xc)+E(xc)   XCENC  =      1748.55425276
  PAW double counting   =     31854.93933934   -35687.86723865
  entropy T*S    EENTRO =        -0.00000000
  eigenvalues    EBANDS =    -11171.84527062
  atomic energy  EATOM  =     47650.37657287
  ---------------------------------------------------
  free energy    TOTEN  =      -235.96797617 eV

  energy without entropy =     -235.96797617  energy(sigma->0) =     -235.96797617


--------------------------------------------------------------------------------------------------------




--------------------------------------- Iteration      1(   3)  ---------------------------------------


    TRIAL :  cpu time      4.2591: real time      4.2763
    CORREC:  cpu time      0.0001: real time      0.0001
    --------------------------------------------
      LOOP:  cpu time      4.2617: real time      4.2802

 eigenvalue-minimisations  :  2736
 total energy-change (2. order) :-0.1971474E+03  (-0.1968222E+03)
 number of electron     448.0000000 magnetization
 augmentation part      448.0000000 magnetization

 DIPCOR: dipole corrections for dipol
 direction  3 min pos     1,
 dipolmoment           0.000000      0.000000     -0.000003 electrons x Angstroem
 Tr[quadrupol]     -6001.709953

 energy correction for charged system         0.000000 eV
 dipol+quadrupol energy correction           -0.000000 eV
 added-field ion interaction          0.000001 eV  (added to PSCEN)


 Free energy of the ion-electron system (eV)
  ---------------------------------------------------
  alpha Z        PSCENC =       869.06037387
  Ewald energy   TEWEN  =    139573.22111719
  -Hartree energ DENC   =   -175072.40712293
  -exchange      EXHF   =         0.00000000
  -V(xc)+E(xc)   XCENC  =      1748.55425276
  PAW double counting   =     31854.93933934   -35687.86723865
  entropy T*S    EENTRO =        -0.00000000
  eigenvalues    EBANDS =    -11368.99266375
  atomic energy  EATOM  =     47650.37657287
  ---------------------------------------------------
  free energy    TOTEN  =      -433.11536930 eV

  energy without entropy =     -433.11536930  energy(sigma->0) =     -433.11536930


--------------------------------------------------------------------------------------------------------




--------------------------------------- Iteration      1(   4)  ---------------------------------------


    TRIAL :  cpu time      2.5475: real time      2.5586
    CORREC:  cpu time      0.0001: real time      0.0001
    --------------------------------------------
      LOOP:  cpu time      2.5483: real time      2.5634

 eigenvalue-minimisations  :  1976
 total energy-change (2. order) :-0.1642894E+01  (-0.1642806E+01)
 number of electron     448.0000000 magnetization
 augmentation part      448.0000000 magnetization

 DIPCOR: dipole corrections for dipol
 direction  3 min pos     1,
 dipolmoment           0.000000      0.000000     -0.000003 electrons x Angstroem
 Tr[quadrupol]     -6001.709953

 energy correction for charged system         0.000000 eV
 dipol+quadrupol energy correction           -0.000000 eV
 added-field ion interaction          0.000001 eV  (added to PSCEN)


 Free energy of the ion-electron system (eV)
  ---------------------------------------------------
  alpha Z        PSCENC =       869.06037387
  Ewald energy   TEWEN  =    139573.22111719
  -Hartree energ DENC   =   -175072.40712293
  -exchange      EXHF   =         0.00000000
  -V(xc)+E(xc)   XCENC  =      1748.55425276
  PAW double counting   =     31854.93933934   -35687.86723865
  entropy T*S    EENTRO =        -0.00000000
  eigenvalues    EBANDS =    -11370.63555753
  atomic energy  EATOM  =     47650.37657287
  ---------------------------------------------------
  free energy    TOTEN  =      -434.75826308 eV

  energy without entropy =     -434.75826308  energy(sigma->0) =     -434.75826308


--------------------------------------------------------------------------------------------------------




--------------------------------------- Iteration      1(   5)  ---------------------------------------


    TRIAL :  cpu time      4.2654: real time      4.2819
    CORREC:  cpu time      0.0001: real time      0.0001
    CHARGE:  cpu time      0.1908: real time      0.1914
    --------------------------------------------
      LOOP:  cpu time      4.4581: real time      4.4772

 eigenvalue-minimisations  :  2736
 total energy-change (2. order) :-0.2343192E-01  (-0.2343149E-01)
 number of electron     447.9999541 magnetization
 augmentation part      158.8358321 magnetization

 DIPCOR: dipole corrections for dipol
 direction  3 min pos     1,
 dipolmoment           0.000000      0.000000     -0.000003 electrons x Angstroem
 Tr[quadrupol]     -6001.709953

 energy correction for charged system         0.000000 eV
 dipol+quadrupol energy correction           -0.000000 eV
 added-field ion interaction          0.000001 eV  (added to PSCEN)


 Free energy of the ion-electron system (eV)
  ---------------------------------------------------
  alpha Z        PSCENC =       869.06037387
  Ewald energy   TEWEN  =    139573.22111719
  -Hartree energ DENC   =   -175072.40712293
  -exchange      EXHF   =         0.00000000
  -V(xc)+E(xc)   XCENC  =      1748.55425276
  PAW double counting   =     31854.93933934   -35687.86723865
  entropy T*S    EENTRO =        -0.00000000
  eigenvalues    EBANDS =    -11370.65898945
  atomic energy  EATOM  =     47650.37657287
  ---------------------------------------------------
  free energy    TOTEN  =      -434.78169500 eV

  energy without entropy =     -434.78169500  energy(sigma->0) =     -434.78169500


--------------------------------------------------------------------------------------------------------




--------------------------------------- Iteration      1(   6)  ---------------------------------------


    POTLOK:  cpu time      0.0362: real time      0.0364
    SETDIJ:  cpu time      0.0801: real time      0.0803
    TRIAL :  cpu time      0.9065: real time      0.9140
    CORREC:  cpu time      0.5930: real time      0.5963
    CHARGE:  cpu time      0.1834: real time      0.1841
    --------------------------------------------
      LOOP:  cpu time      1.8007: real time      1.8152

 eigenvalue-minimisations  :     0
 total energy-change (2. order) : 0.1723405E+03  (-0.9575866E+02)
 number of electron     447.9999554 magnetization
 augmentation part      155.9574337 magnetization

 DIPCOR: dipole corrections for dipol
 direction  3 min pos     1,
 dipolmoment           0.000000      0.000000      0.311042 electrons x Angstroem
 Tr[quadrupol]     -6035.705548

 energy correction for charged system         0.000000 eV
 dipol+quadrupol energy correction           -0.005719 eV
 added-field ion interaction         -0.108786 eV  (added to PSCEN)


 Free energy of the ion-electron system (eV)
  ---------------------------------------------------
  alpha Z        PSCENC =       868.85169648
  Ewald energy   TEWEN  =    139573.22111719
  -Hartree energ DENC   =   -178882.88605330
  -exchange      EXHF   =         0.00000000
  -V(xc)+E(xc)   XCENC  =      1872.39293928
  PAW double counting   =     36097.55509901   -39883.27606307
  entropy T*S    EENTRO =        -0.00000000
  eigenvalues    EBANDS =     -7558.67645724
  atomic energy  EATOM  =     47650.37657287
  ---------------------------------------------------
  free energy    TOTEN  =      -262.44114878 eV

  energy without entropy =     -262.44114878  energy(sigma->0) =     -262.44114878


--------------------------------------------------------------------------------------------------------




--------------------------------------- Iteration      1(   7)  ---------------------------------------


    POTLOK:  cpu time      0.0356: real time      0.0357
    SETDIJ:  cpu time      0.0810: real time      0.0812
    TRIAL :  cpu time      0.8916: real time      0.8955
    CORREC:  cpu time      0.5711: real time      0.5728
    CHARGE:  cpu time      0.1830: real time      0.1836
    --------------------------------------------
      LOOP:  cpu time      1.7645: real time      1.7729

 eigenvalue-minimisations  :     0
 total energy-change (2. order) :-0.9628357E+02  (-0.6623975E+01)
 number of electron     447.9999560 magnetization
 augmentation part      154.1276323 magnetization

 DIPCOR: dipole corrections for dipol
 direction  3 min pos     1,
 dipolmoment           0.000000      0.000000      0.237021 electrons x Angstroem
 Tr[quadrupol]     -6042.365205

 energy correction for charged system         0.000000 eV
 dipol+quadrupol energy correction           -0.003321 eV
 added-field ion interaction         -0.082897 eV  (added to PSCEN)


 Free energy of the ion-electron system (eV)
  ---------------------------------------------------
  alpha Z        PSCENC =       868.93192558
  Ewald energy   TEWEN  =    139573.22111719
  -Hartree energ DENC   =   -177033.13591923
  -exchange      EXHF   =         0.00000000
  -V(xc)+E(xc)   XCENC  =      1804.35644147
  PAW double counting   =     34962.98444573   -38818.77476700
  entropy T*S    EENTRO =        -0.00000000
  eigenvalues    EBANDS =     -9366.68453542
  atomic energy  EATOM  =     47650.37657287
  ---------------------------------------------------
  free energy    TOTEN  =      -358.72471881 eV

  energy without entropy =     -358.72471881  energy(sigma->0) =     -358.72471881


--------------------------------------------------------------------------------------------------------




--------------------------------------- Iteration      1(   8)  ---------------------------------------


    POTLOK:  cpu time      0.0354: real time      0.0355
    SETDIJ:  cpu time      0.0797: real time      0.0799
    TRIAL :  cpu time      0.8844: real time      0.8884
    CORREC:  cpu time      0.5673: real time      0.5692
    CHARGE:  cpu time      0.1828: real time      0.1835
    --------------------------------------------
      LOOP:  cpu time      1.7513: real time      1.7606

 eigenvalue-minimisations  :     0
 total energy-change (2. order) :-0.6640801E+01  (-0.4056583E+01)
 number of electron     447.9999560 magnetization
 augmentation part      154.2788855 magnetization

 DIPCOR: dipole corrections for dipol
 direction  3 min pos     1,
 dipolmoment           0.000000      0.000000      0.156683 electrons x Angstroem
 Tr[quadrupol]     -6041.009305

 energy correction for charged system         0.000000 eV
 dipol+quadrupol energy correction           -0.001451 eV
 added-field ion interaction         -0.054799 eV  (added to PSCEN)


 Free energy of the ion-electron system (eV)
  ---------------------------------------------------
  alpha Z        PSCENC =       868.98664681
  Ewald energy   TEWEN  =    139573.22111719
  -Hartree energ DENC   =   -176937.90159364
  -exchange      EXHF   =         0.00000000
  -V(xc)+E(xc)   XCENC  =      1794.47561502
  PAW double counting   =     34859.36732517   -38646.48611672
  entropy T*S    EENTRO =        -0.00000000
  eigenvalues    EBANDS =     -9527.40508670
  atomic energy  EATOM  =     47650.37657287
  ---------------------------------------------------
  free energy    TOTEN  =      -365.36552001 eV

  energy without entropy =     -365.36552001  energy(sigma->0) =     -365.36552001


--------------------------------------------------------------------------------------------------------




--------------------------------------- Iteration      1(   9)  ---------------------------------------


    POTLOK:  cpu time      0.0362: real time      0.0363
    SETDIJ:  cpu time      0.0796: real time      0.0798
    TRIAL :  cpu time      0.8841: real time      0.8879
    CORREC:  cpu time      0.5644: real time      0.5662
    CHARGE:  cpu time      0.1832: real time      0.1838
    --------------------------------------------
      LOOP:  cpu time      1.7500: real time      1.7582

 eigenvalue-minimisations  :     0
 total energy-change (2. order) :-0.3985810E+01  (-0.1752520E+01)
 number of electron     447.9999560 magnetization
 augmentation part      154.2789924 magnetization

 DIPCOR: dipole corrections for dipol
 direction  3 min pos     1,
 dipolmoment           0.000000      0.000000      0.119408 electrons x Angstroem
 Tr[quadrupol]     -6035.009900

 energy correction for charged system         0.000000 eV
 dipol+quadrupol energy correction           -0.000843 eV
 added-field ion interaction         -0.041762 eV  (added to PSCEN)


 Free energy of the ion-electron system (eV)
  ---------------------------------------------------
  alpha Z        PSCENC =       869.01452821
  Ewald energy   TEWEN  =    139573.22111719
  -Hartree energ DENC   =   -176830.09706348
  -exchange      EXHF   =         0.00000000
  -V(xc)+E(xc)   XCENC  =      1794.26610665
  PAW double counting   =     34792.55190795   -38616.28845048
  entropy T*S    EENTRO =        -0.00000000
  eigenvalues    EBANDS =     -9602.39604856
  atomic energy  EATOM  =     47650.37657287
  ---------------------------------------------------
  free energy    TOTEN  =      -369.35132965 eV

  energy without entropy =     -369.35132965  energy(sigma->0) =     -369.35132965


--------------------------------------------------------------------------------------------------------




--------------------------------------- Iteration      1(  10)  ---------------------------------------


    POTLOK:  cpu time      0.0365: real time      0.0367
    SETDIJ:  cpu time      0.0804: real time      0.0805
    TRIAL :  cpu time      0.8822: real time      0.8860
    CORREC:  cpu time      0.5648: real time      0.5666
    CHARGE:  cpu time      0.1834: real time      0.1840
    --------------------------------------------
      LOOP:  cpu time      1.7496: real time      1.7582

 eigenvalue-minimisations  :     0
 total energy-change (2. order) :-0.1764396E+01  (-0.6173191E+00)
 number of electron     447.9999560 magnetization
 augmentation part      154.2096712 magnetization

 DIPCOR: dipole corrections for dipol
 direction  3 min pos     1,
 dipolmoment           0.000000      0.000000      0.135154 electrons x Angstroem
 Tr[quadrupol]     -6033.895059

 energy correction for charged system         0.000000 eV
 dipol+quadrupol energy correction           -0.001080 eV
 added-field ion interaction         -0.047270 eV  (added to PSCEN)


 Free energy of the ion-electron system (eV)
  ---------------------------------------------------
  alpha Z        PSCENC =       869.01694762
  Ewald energy   TEWEN  =    139573.22111719
  -Hartree energ DENC   =   -176670.04031280
  -exchange      EXHF   =         0.00000000
  -V(xc)+E(xc)   XCENC  =      1792.55050766
  PAW double counting   =     34681.53318157   -38512.75855241
  entropy T*S    EENTRO =        -0.00000000
  eigenvalues    EBANDS =     -9755.01518769
  atomic energy  EATOM  =     47650.37657287
  ---------------------------------------------------
  free energy    TOTEN  =      -371.11572599 eV

  energy without entropy =     -371.11572599  energy(sigma->0) =     -371.11572599


--------------------------------------------------------------------------------------------------------




--------------------------------------- Iteration      1(  11)  ---------------------------------------


    POTLOK:  cpu time      0.0365: real time      0.0367
    SETDIJ:  cpu time      0.0797: real time      0.0798
    TRIAL :  cpu time      0.8824: real time      0.8862
    CORREC:  cpu time      0.5637: real time      0.5655
    CHARGE:  cpu time      0.1833: real time      0.1839
    --------------------------------------------
      LOOP:  cpu time      1.7482: real time      1.7563

 eigenvalue-minimisations  :     0
 total energy-change (2. order) :-0.6188302E+00  (-0.2095102E+00)
 number of electron     447.9999559 magnetization
 augmentation part      154.2943908 magnetization

 DIPCOR: dipole corrections for dipol
 direction  3 min pos     1,
 dipolmoment           0.000000      0.000000      0.145576 electrons x Angstroem
 Tr[quadrupol]     -6034.469984

 energy correction for charged system         0.000000 eV
 dipol+quadrupol energy correction           -0.001253 eV
 added-field ion interaction         -0.050915 eV  (added to PSCEN)


 Free energy of the ion-electron system (eV)
  ---------------------------------------------------
  alpha Z        PSCENC =       869.01256013
  Ewald energy   TEWEN  =    139573.22111719
  -Hartree energ DENC   =   -176605.18517070
  -exchange      EXHF   =         0.00000000
  -V(xc)+E(xc)   XCENC  =      1791.34677138
  PAW double counting   =     34615.20939134   -38437.41909040
  entropy T*S    EENTRO =        -0.00000000
  eigenvalues    EBANDS =     -9828.29670803
  atomic energy  EATOM  =     47650.37657287
  ---------------------------------------------------
  free energy    TOTEN  =      -371.73455622 eV

  energy without entropy =     -371.73455622  energy(sigma->0) =     -371.73455622


--------------------------------------------------------------------------------------------------------




--------------------------------------- Iteration      1(  12)  ---------------------------------------


    POTLOK:  cpu time      0.0357: real time      0.0359
    SETDIJ:  cpu time      0.0797: real time      0.0799
    TRIAL :  cpu time      0.8805: real time      0.8846
    CORREC:  cpu time      0.5634: real time      0.5654
    CHARGE:  cpu time      0.1840: real time      0.1847
    --------------------------------------------
      LOOP:  cpu time      1.7450: real time      1.7542

 eigenvalue-minimisations  :     0
 total energy-change (2. order) :-0.2095054E+00  (-0.6938564E-01)
 number of electron     447.9999559 magnetization
 augmentation part      154.4012990 magnetization

 DIPCOR: dipole corrections for dipol
 direction  3 min pos     1,
 dipolmoment           0.000000      0.000000      0.151705 electrons x Angstroem
 Tr[quadrupol]     -6034.956896

 energy correction for charged system         0.000000 eV
 dipol+quadrupol energy correction           -0.001360 eV
 added-field ion interaction         -0.053058 eV  (added to PSCEN)


 Free energy of the ion-electron system (eV)
  ---------------------------------------------------
  alpha Z        PSCENC =       869.00831464
  Ewald energy   TEWEN  =    139573.22111719
  -Hartree energ DENC   =   -176619.61042616
  -exchange      EXHF   =         0.00000000
  -V(xc)+E(xc)   XCENC  =      1791.51983041
  PAW double counting   =     34599.59196399   -38420.00118903
  entropy T*S    EENTRO =        -0.00000000
  eigenvalues    EBANDS =     -9816.05024554
  atomic energy  EATOM  =     47650.37657287
  ---------------------------------------------------
  free energy    TOTEN  =      -371.94406162 eV

  energy without entropy =     -371.94406162  energy(sigma->0) =     -371.94406162


--------------------------------------------------------------------------------------------------------




--------------------------------------- Iteration      1(  13)  ---------------------------------------


    POTLOK:  cpu time      0.0364: real time      0.0365
    SETDIJ:  cpu time      0.0797: real time      0.0799
    TRIAL :  cpu time      0.8811: real time      0.8861
    CORREC:  cpu time      0.5633: real time      0.5653
    CHARGE:  cpu time      0.1829: real time      0.1836
    --------------------------------------------
      LOOP:  cpu time      1.7454: real time      1.7554

 eigenvalue-minimisations  :     0
 total energy-change (2. order) :-0.6939088E-01  (-0.3057901E-01)
 number of electron     447.9999559 magnetization
 augmentation part      154.4440494 magnetization

 DIPCOR: dipole corrections for dipol
 direction  3 min pos     1,
 dipolmoment           0.000000      0.000000      0.155725 electrons x Angstroem
 Tr[quadrupol]     -6035.250410

 energy correction for charged system         0.000000 eV
 dipol+quadrupol energy correction           -0.001433 eV
 added-field ion interaction         -0.054464 eV  (added to PSCEN)


 Free energy of the ion-electron system (eV)
  ---------------------------------------------------
  alpha Z        PSCENC =       869.00588298
  Ewald energy   TEWEN  =    139573.22111719
  -Hartree energ DENC   =   -176642.06672526
  -exchange      EXHF   =         0.00000000
  -V(xc)+E(xc)   XCENC  =      1791.84141234
  PAW double counting   =     34599.99098194   -38423.51103757
  entropy T*S    EENTRO =        -0.00000000
  eigenvalues    EBANDS =     -9790.87165699
  atomic energy  EATOM  =     47650.37657287
  ---------------------------------------------------
  free energy    TOTEN  =      -372.01345251 eV

  energy without entropy =     -372.01345251  energy(sigma->0) =     -372.01345251


--------------------------------------------------------------------------------------------------------




--------------------------------------- Iteration      1(  14)  ---------------------------------------


    POTLOK:  cpu time      0.0359: real time      0.0361
    SETDIJ:  cpu time      0.0801: real time      0.0803
    TRIAL :  cpu time      0.8790: real time      0.8830
    CORREC:  cpu time      0.5619: real time      0.5637
    CHARGE:  cpu time      0.1835: real time      0.1841
    --------------------------------------------
      LOOP:  cpu time      1.7431: real time      1.7513

 eigenvalue-minimisations  :     0
 total energy-change (2. order) :-0.3059618E-01  (-0.1431666E-01)
 number of electron     447.9999559 magnetization
 augmentation part      154.4309548 magnetization

 DIPCOR: dipole corrections for dipol
 direction  3 min pos     1,
 dipolmoment           0.000000      0.000000      0.160133 electrons x Angstroem
 Tr[quadrupol]     -6035.513258

 energy correction for charged system         0.000000 eV
 dipol+quadrupol energy correction           -0.001516 eV
 added-field ion interaction         -0.056006 eV  (added to PSCEN)


 Free energy of the ion-electron system (eV)
  ---------------------------------------------------
  alpha Z        PSCENC =       869.00418311
  Ewald energy   TEWEN  =    139573.22111719
  -Hartree energ DENC   =   -176653.83290044
  -exchange      EXHF   =         0.00000000
  -V(xc)+E(xc)   XCENC  =      1791.90636575
  PAW double counting   =     34602.49765682   -38427.66336517
  entropy T*S    EENTRO =        -0.00000000
  eigenvalues    EBANDS =     -9777.55367882
  atomic energy  EATOM  =     47650.37657287
  ---------------------------------------------------
  free energy    TOTEN  =      -372.04404869 eV

  energy without entropy =     -372.04404869  energy(sigma->0) =     -372.04404869


--------------------------------------------------------------------------------------------------------




--------------------------------------- Iteration      1(  15)  ---------------------------------------


    POTLOK:  cpu time      0.0369: real time      0.0370
    SETDIJ:  cpu time      0.0802: real time      0.0804
    TRIAL :  cpu time      0.8764: real time      0.8802
    CORREC:  cpu time      0.5599: real time      0.5616
    CHARGE:  cpu time      0.1832: real time      0.1838
    --------------------------------------------
      LOOP:  cpu time      1.7385: real time      1.7471

 eigenvalue-minimisations  :     0
 total energy-change (2. order) :-0.1432978E-01  (-0.6497031E-02)
 number of electron     447.9999559 magnetization
 augmentation part      154.4158798 magnetization

 DIPCOR: dipole corrections for dipol
 direction  3 min pos     1,
 dipolmoment           0.000000      0.000000      0.163881 electrons x Angstroem
 Tr[quadrupol]     -6035.737319

 energy correction for charged system         0.000000 eV
 dipol+quadrupol energy correction           -0.001588 eV
 added-field ion interaction         -0.057317 eV  (added to PSCEN)


 Free energy of the ion-electron system (eV)
  ---------------------------------------------------
  alpha Z        PSCENC =       869.00252135
  Ewald energy   TEWEN  =    139573.22111719
  -Hartree energ DENC   =   -176661.90140789
  -exchange      EXHF   =         0.00000000
  -V(xc)+E(xc)   XCENC  =      1791.93319126
  PAW double counting   =     34607.47854354   -38431.75983978
  entropy T*S    EENTRO =        -0.00000000
  eigenvalues    EBANDS =     -9770.40907701
  atomic energy  EATOM  =     47650.37657287
  ---------------------------------------------------
  free energy    TOTEN  =      -372.05837847 eV

  energy without entropy =     -372.05837847  energy(sigma->0) =     -372.05837847


--------------------------------------------------------------------------------------------------------




--------------------------------------- Iteration      1(  16)  ---------------------------------------


    POTLOK:  cpu time      0.0371: real time      0.0372
    SETDIJ:  cpu time      0.0803: real time      0.0804
    TRIAL :  cpu time      0.8791: real time      0.8829
    CORREC:  cpu time      0.5639: real time      0.5657
    CHARGE:  cpu time      0.1855: real time      0.1861
    --------------------------------------------
      LOOP:  cpu time      1.7476: real time      1.7562

 eigenvalue-minimisations  :     0
 total energy-change (2. order) :-0.6500862E-02  (-0.2466419E-02)
 number of electron     447.9999559 magnetization
 augmentation part      154.4135046 magnetization

 DIPCOR: dipole corrections for dipol
 direction  3 min pos     1,
 dipolmoment           0.000000      0.000000      0.165491 electrons x Angstroem
 Tr[quadrupol]     -6035.862251

 energy correction for charged system         0.000000 eV
 dipol+quadrupol energy correction           -0.001619 eV
 added-field ion interaction         -0.057880 eV  (added to PSCEN)


 Free energy of the ion-electron system (eV)
  ---------------------------------------------------
  alpha Z        PSCENC =       869.00118729
  Ewald energy   TEWEN  =    139573.22111719
  -Hartree energ DENC   =   -176670.34003115
  -exchange      EXHF   =         0.00000000
  -V(xc)+E(xc)   XCENC  =      1792.04282016
  PAW double counting   =     34613.50287077   -38437.01826599
  entropy T*S    EENTRO =        -0.00000000
  eigenvalues    EBANDS =     -9762.85115046
  atomic energy  EATOM  =     47650.37657287
  ---------------------------------------------------
  free energy    TOTEN  =      -372.06487933 eV

  energy without entropy =     -372.06487933  energy(sigma->0) =     -372.06487933


--------------------------------------------------------------------------------------------------------




--------------------------------------- Iteration      1(  17)  ---------------------------------------


    POTLOK:  cpu time      0.0364: real time      0.0366
    SETDIJ:  cpu time      0.0803: real time      0.0805
    TRIAL :  cpu time      0.8783: real time      0.8821
    CORREC:  cpu time      0.5584: real time      0.5600
    CHARGE:  cpu time      0.1831: real time      0.1837
    --------------------------------------------
      LOOP:  cpu time      1.7376: real time      1.7467

 eigenvalue-minimisations  :     0
 total energy-change (2. order) :-0.2463184E-02  (-0.9084771E-03)
 number of electron     447.9999559 magnetization
 augmentation part      154.4141569 magnetization

 DIPCOR: dipole corrections for dipol
 direction  3 min pos     1,
 dipolmoment           0.000000      0.000000      0.165103 electrons x Angstroem
 Tr[quadrupol]     -6035.884188

 energy correction for charged system         0.000000 eV
 dipol+quadrupol energy correction           -0.001611 eV
 added-field ion interaction         -0.057744 eV  (added to PSCEN)


 Free energy of the ion-electron system (eV)
  ---------------------------------------------------
  alpha Z        PSCENC =       869.00080072
  Ewald energy   TEWEN  =    139573.22111719
  -Hartree energ DENC   =   -176674.40387446
  -exchange      EXHF   =         0.00000000
  -V(xc)+E(xc)   XCENC  =      1792.10378394
  PAW double counting   =     34617.02908809   -38440.72683159
  entropy T*S    EENTRO =        -0.00000000
  eigenvalues    EBANDS =     -9758.66799928
  atomic energy  EATOM  =     47650.37657287
  ---------------------------------------------------
  free energy    TOTEN  =      -372.06734251 eV

  energy without entropy =     -372.06734251  energy(sigma->0) =     -372.06734251


--------------------------------------------------------------------------------------------------------




--------------------------------------- Iteration      1(  18)  ---------------------------------------


    POTLOK:  cpu time      0.0365: real time      0.0367
    SETDIJ:  cpu time      0.0802: real time      0.0804
    TRIAL :  cpu time      0.8759: real time      0.8797
    CORREC:  cpu time      0.5614: real time      0.5633
    CHARGE:  cpu time      0.1827: real time      0.1833
    --------------------------------------------
      LOOP:  cpu time      1.7383: real time      1.7471

 eigenvalue-minimisations  :     0
 total energy-change (2. order) :-0.9061157E-03  (-0.3469152E-03)
 number of electron     447.9999559 magnetization
 augmentation part      154.4142952 magnetization

 DIPCOR: dipole corrections for dipol
 direction  3 min pos     1,
 dipolmoment           0.000000      0.000000      0.164015 electrons x Angstroem
 Tr[quadrupol]     -6035.865575

 energy correction for charged system         0.000000 eV
 dipol+quadrupol energy correction           -0.001590 eV
 added-field ion interaction         -0.057364 eV  (added to PSCEN)


 Free energy of the ion-electron system (eV)
  ---------------------------------------------------
  alpha Z        PSCENC =       869.00107717
  Ewald energy   TEWEN  =    139573.22111719
  -Hartree energ DENC   =   -176674.72948125
  -exchange      EXHF   =         0.00000000
  -V(xc)+E(xc)   XCENC  =      1792.11520940
  PAW double counting   =     34619.07435223   -38442.96130661
  entropy T*S    EENTRO =        -0.00000000
  eigenvalues    EBANDS =     -9758.16578962
  atomic energy  EATOM  =     47650.37657287
  ---------------------------------------------------
  free energy    TOTEN  =      -372.06824863 eV

  energy without entropy =     -372.06824863  energy(sigma->0) =     -372.06824863


--------------------------------------------------------------------------------------------------------




--------------------------------------- Iteration      1(  19)  ---------------------------------------


    POTLOK:  cpu time      0.0369: real time      0.0370
    SETDIJ:  cpu time      0.0800: real time      0.0802
    TRIAL :  cpu time      0.8766: real time      0.8805
    CORREC:  cpu time      0.5592: real time      0.5612
    CHARGE:  cpu time      0.1829: real time      0.1836
    --------------------------------------------
      LOOP:  cpu time      1.7372: real time      1.7463

 eigenvalue-minimisations  :     0
 total energy-change (2. order) :-0.3468045E-03  (-0.1384297E-03)
 number of electron     447.9999559 magnetization
 augmentation part      154.4137396 magnetization

 DIPCOR: dipole corrections for dipol
 direction  3 min pos     1,
 dipolmoment           0.000000      0.000000      0.163116 electrons x Angstroem
 Tr[quadrupol]     -6035.837929

 energy correction for charged system         0.000000 eV
 dipol+quadrupol energy correction           -0.001573 eV
 added-field ion interaction         -0.057049 eV  (added to PSCEN)


 Free energy of the ion-electron system (eV)
  ---------------------------------------------------
  alpha Z        PSCENC =       869.00152745
  Ewald energy   TEWEN  =    139573.22111719
  -Hartree energ DENC   =   -176673.90349055
  -exchange      EXHF   =         0.00000000
  -V(xc)+E(xc)   XCENC  =      1792.12248632
  PAW double counting   =     34620.27476635   -38444.09297218
  entropy T*S    EENTRO =        -0.00000000
  eigenvalues    EBANDS =     -9759.06860287
  atomic energy  EATOM  =     47650.37657287
  ---------------------------------------------------
  free energy    TOTEN  =      -372.06859543 eV

  energy without entropy =     -372.06859543  energy(sigma->0) =     -372.06859543


--------------------------------------------------------------------------------------------------------




--------------------------------------- Iteration      1(  20)  ---------------------------------------


    POTLOK:  cpu time      0.0362: real time      0.0364
    SETDIJ:  cpu time      0.0800: real time      0.0802
    TRIAL :  cpu time      0.8757: real time      0.8795
    CORREC:  cpu time      0.5618: real time      0.5636
    CHARGE:  cpu time      0.1833: real time      0.1839
    --------------------------------------------
      LOOP:  cpu time      1.7390: real time      1.7475

 eigenvalue-minimisations  :     0
 total energy-change (2. order) :-0.1386686E-03  (-0.5548114E-04)
 number of electron     447.9999559 magnetization
 augmentation part      154.4134260 magnetization

 DIPCOR: dipole corrections for dipol
 direction  3 min pos     1,
 dipolmoment           0.000000      0.000000      0.162691 electrons x Angstroem
 Tr[quadrupol]     -6035.816032

 energy correction for charged system         0.000000 eV
 dipol+quadrupol energy correction           -0.001565 eV
 added-field ion interaction         -0.056901 eV  (added to PSCEN)


 Free energy of the ion-electron system (eV)
  ---------------------------------------------------
  alpha Z        PSCENC =       869.00183077
  Ewald energy   TEWEN  =    139573.22111719
  -Hartree energ DENC   =   -176672.79269584
  -exchange      EXHF   =         0.00000000
  -V(xc)+E(xc)   XCENC  =      1792.11592504
  PAW double counting   =     34619.96753416   -38443.70827746
  entropy T*S    EENTRO =        -0.00000000
  eigenvalues    EBANDS =     -9760.25074083
  atomic energy  EATOM  =     47650.37657287
  ---------------------------------------------------
  free energy    TOTEN  =      -372.06873410 eV

  energy without entropy =     -372.06873410  energy(sigma->0) =     -372.06873410


--------------------------------------------------------------------------------------------------------




--------------------------------------- Iteration      1(  21)  ---------------------------------------


    POTLOK:  cpu time      0.0366: real time      0.0367
    SETDIJ:  cpu time      0.0800: real time      0.0802
    TRIAL :  cpu time      0.8776: real time      0.8816
    CORREC:  cpu time      0.5596: real time      0.5613
    CHARGE:  cpu time      0.1833: real time      0.1839
    --------------------------------------------
      LOOP:  cpu time      1.7387: real time      1.7474

 eigenvalue-minimisations  :     0
 total energy-change (2. order) :-0.5532197E-04  (-0.1860194E-04)
 number of electron     447.9999559 magnetization
 augmentation part      154.4138457 magnetization

 DIPCOR: dipole corrections for dipol
 direction  3 min pos     1,
 dipolmoment           0.000000      0.000000      0.162629 electrons x Angstroem
 Tr[quadrupol]     -6035.807245

 energy correction for charged system         0.000000 eV
 dipol+quadrupol energy correction           -0.001563 eV
 added-field ion interaction         -0.056879 eV  (added to PSCEN)


 Free energy of the ion-electron system (eV)
  ---------------------------------------------------
  alpha Z        PSCENC =       869.00193348
  Ewald energy   TEWEN  =    139573.22111719
  -Hartree energ DENC   =   -176671.99121366
  -exchange      EXHF   =         0.00000000
  -V(xc)+E(xc)   XCENC  =      1792.10329356
  PAW double counting   =     34618.95422121   -38442.70035316
  entropy T*S    EENTRO =        -0.00000000
  eigenvalues    EBANDS =     -9761.03436091
  atomic energy  EATOM  =     47650.37657287
  ---------------------------------------------------
  free energy    TOTEN  =      -372.06878942 eV

  energy without entropy =     -372.06878942  energy(sigma->0) =     -372.06878942


--------------------------------------------------------------------------------------------------------




--------------------------------------- Iteration      1(  22)  ---------------------------------------


    POTLOK:  cpu time      0.0368: real time      0.0369
    SETDIJ:  cpu time      0.0805: real time      0.0807
    TRIAL :  cpu time      0.8755: real time      0.8795
    CORREC:  cpu time      0.5622: real time      0.5642
    CHARGE:  cpu time      0.1829: real time      0.1836
    --------------------------------------------
      LOOP:  cpu time      1.7399: real time      1.7489

 eigenvalue-minimisations  :     0
 total energy-change (2. order) :-0.1854443E-04  (-0.6772446E-05)
 number of electron     447.9999559 magnetization
 augmentation part      154.4140904 magnetization

 DIPCOR: dipole corrections for dipol
 direction  3 min pos     1,
 dipolmoment           0.000000      0.000000      0.162687 electrons x Angstroem
 Tr[quadrupol]     -6035.804809

 energy correction for charged system         0.000000 eV
 dipol+quadrupol energy correction           -0.001564 eV
 added-field ion interaction         -0.056899 eV  (added to PSCEN)


 Free energy of the ion-electron system (eV)
  ---------------------------------------------------
  alpha Z        PSCENC =       869.00192933
  Ewald energy   TEWEN  =    139573.22111719
  -Hartree energ DENC   =   -176671.81812869
  -exchange      EXHF   =         0.00000000
  -V(xc)+E(xc)   XCENC  =      1792.10293388
  PAW double counting   =     34618.44511990   -38442.21117455
  entropy T*S    EENTRO =        -0.00000000
  eigenvalues    EBANDS =     -9761.18717790
  atomic energy  EATOM  =     47650.37657287
  ---------------------------------------------------
  free energy    TOTEN  =      -372.06880797 eV

  energy without entropy =     -372.06880797  energy(sigma->0) =     -372.06880797


--------------------------------------------------------------------------------------------------------




--------------------------------------- Iteration      1(  23)  ---------------------------------------


    POTLOK:  cpu time      0.0371: real time      0.0373
    SETDIJ:  cpu time      0.0803: real time      0.0804
    TRIAL :  cpu time      0.8773: real time      0.8813
    CORREC:  cpu time      0.5600: real time      0.5617
    CHARGE:  cpu time      0.1838: real time      0.1845
    --------------------------------------------
      LOOP:  cpu time      1.7402: real time      1.7492

 eigenvalue-minimisations  :     0
 total energy-change (2. order) :-0.6840106E-05  (-0.2977770E-05)
 number of electron     447.9999559 magnetization
 augmentation part      154.4139175 magnetization

 DIPCOR: dipole corrections for dipol
 direction  3 min pos     1,
 dipolmoment           0.000000      0.000000      0.162768 electrons x Angstroem
 Tr[quadrupol]     -6035.804520

 energy correction for charged system         0.000000 eV
 dipol+quadrupol energy correction           -0.001566 eV
 added-field ion interaction         -0.056928 eV  (added to PSCEN)


 Free energy of the ion-electron system (eV)
  ---------------------------------------------------
  alpha Z        PSCENC =       869.00190250
  Ewald energy   TEWEN  =    139573.22111719
  -Hartree energ DENC   =   -176671.79114426
  -exchange      EXHF   =         0.00000000
  -V(xc)+E(xc)   XCENC  =      1792.10457860
  PAW double counting   =     34618.30935613   -38442.07866927
  entropy T*S    EENTRO =        -0.00000000
  eigenvalues    EBANDS =     -9761.21252857
  atomic energy  EATOM  =     47650.37657287
  ---------------------------------------------------
  free energy    TOTEN  =      -372.06881481 eV

  energy without entropy =     -372.06881481  energy(sigma->0) =     -372.06881481


--------------------------------------------------------------------------------------------------------




--------------------------------------- Iteration      1(  24)  ---------------------------------------


    POTLOK:  cpu time      0.0372: real time      0.0373
    SETDIJ:  cpu time      0.0801: real time      0.0802
    TRIAL :  cpu time      0.8794: real time      0.8833
    CORREC:  cpu time      0.5616: real time      0.5633
    CHARGE:  cpu time      0.1827: real time      0.1834
    --------------------------------------------
      LOOP:  cpu time      1.7429: real time      1.7512

 eigenvalue-minimisations  :     0
 total energy-change (2. order) :-0.3008507E-05  (-0.1181904E-05)
 number of electron     447.9999559 magnetization
 augmentation part      154.4138089 magnetization

 DIPCOR: dipole corrections for dipol
 direction  3 min pos     1,
 dipolmoment           0.000000      0.000000      0.162836 electrons x Angstroem
 Tr[quadrupol]     -6035.806091

 energy correction for charged system         0.000000 eV
 dipol+quadrupol energy correction           -0.001567 eV
 added-field ion interaction         -0.056951 eV  (added to PSCEN)


 Free energy of the ion-electron system (eV)
  ---------------------------------------------------
  alpha Z        PSCENC =       869.00187028
  Ewald energy   TEWEN  =    139573.22111719
  -Hartree energ DENC   =   -176671.76107544
  -exchange      EXHF   =         0.00000000
  -V(xc)+E(xc)   XCENC  =      1792.10205589
  PAW double counting   =     34618.22161437   -38441.98968471
  entropy T*S    EENTRO =        -0.00000000
  eigenvalues    EBANDS =     -9761.24128826
  atomic energy  EATOM  =     47650.37657287
  ---------------------------------------------------
  free energy    TOTEN  =      -372.06881782 eV

  energy without entropy =     -372.06881782  energy(sigma->0) =     -372.06881782


--------------------------------------------------------------------------------------------------------




--------------------------------------- Iteration      1(  25)  ---------------------------------------


    POTLOK:  cpu time      0.0370: real time      0.0372
    SETDIJ:  cpu time      0.0799: real time      0.0801
[...]
    296       9.2413      0.00000
    297       9.3327      0.00000
    298       9.3393      0.00000
    299       9.3602      0.00000
    300       9.3685      0.00000
    301       9.7188      0.00000
    302       9.7441      0.00000
    303       9.8647      0.00000
    304       9.9240      0.00000


--------------------------------------------------------------------------------------------------------


 soft charge-density along one line, spin component           1
         0         1         2         3         4         5         6         7         8         9
 total charge-density along one line

 pseudopotential strength for first ion, spin component:           1
-51.807   0.000  -0.000   7.246  -0.000   0.000  -0.000   0.000
  0.000 -51.863   0.000  -0.000   7.273  -0.000  -0.033   0.082
 -0.000   0.000 -51.807   0.000  -0.000   7.246   0.000  -0.000
  7.246  -0.000   0.000   4.273   0.000  -0.000   0.000   0.000
 -0.000   7.273  -0.000   0.000   4.281   0.000  -0.004   0.008
  0.000  -0.000   7.246  -0.000   0.000   4.273   0.000  -0.000
 -0.000  -0.033   0.000   0.000  -0.004   0.000   3.006 -11.095
  0.000   0.082  -0.000   0.000   0.008  -0.000 -11.095  46.262
 -0.000  -0.000   0.000   0.000   0.000  -0.000   0.000  -0.000
  0.009   0.000  -0.000  -0.009  -0.000   0.000  -0.000   0.000
 -0.000   0.010   0.000   0.000  -0.018  -0.000   0.009  -0.019
 -0.000  -0.000   0.009   0.000   0.000  -0.009  -0.000   0.000
 -0.000   0.000  -0.000   0.000   0.000   0.000  -0.000   0.000
 total augmentation occupancy for first ion, spin component:           1
  2.001   0.000   0.000  -0.006   0.000   0.000   0.000   0.000   0.000  -0.008  -0.000  -0.000  -0.000
  0.000   2.002  -0.000   0.000   0.000   0.000   0.001   0.004  -0.000   0.000  -0.014   0.000   0.000
  0.000  -0.000   2.001   0.000  -0.000  -0.006   0.000  -0.000   0.000  -0.000   0.000  -0.008  -0.000
 -0.006   0.000   0.000   0.076  -0.000   0.000   0.000  -0.000  -0.000   0.001  -0.000   0.000   0.000
  0.000   0.000  -0.000  -0.000   0.047   0.000   0.039   0.001   0.000  -0.000   0.025   0.000  -0.000
  0.000   0.000  -0.006   0.000   0.000   0.076  -0.000   0.000   0.000   0.000   0.000   0.001   0.000
  0.000   0.001   0.000   0.000   0.039  -0.000   0.824   0.013  -0.000  -0.000  -0.039   0.000   0.000
  0.000   0.004  -0.000  -0.000   0.001   0.000   0.013   0.000   0.000   0.000  -0.001   0.000   0.000
  0.000  -0.000   0.000  -0.000   0.000   0.000  -0.000   0.000   0.013   0.000  -0.000   0.000  -0.000
 -0.008   0.000  -0.000   0.001  -0.000   0.000  -0.000   0.000   0.000   0.011   0.000  -0.000  -0.000
 -0.000  -0.014   0.000  -0.000   0.025   0.000  -0.039  -0.001  -0.000   0.000   0.030   0.000  -0.000
 -0.000   0.000  -0.008   0.000   0.000   0.001   0.000   0.000   0.000  -0.000   0.000   0.011   0.000
 -0.000   0.000  -0.000   0.000  -0.000   0.000   0.000   0.000  -0.000  -0.000  -0.000   0.000   0.051


------------------------ aborting loop because EDIFF is reached ----------------------------------------


    FORLOC:  cpu time      0.0048: real time      0.0059
    FORNL :  cpu time      0.3157: real time      0.3172
    STRESS:  cpu time      2.1357: real time      2.1435
    FORCOR:  cpu time      0.0312: real time      0.0313
    OFIELD:  cpu time      0.0001: real time      0.0001

  DFT-D2 method for vdW energy calculation
  -------------------------------------------------------------------

  Parameters of vdW forcefield:
         C6(Jnm^6/mol)     R0(A)
   -----------------------------
   Mg       0.630          1.243
   O        0.700          1.342

  vdW correction parametrized for the method pbe

  IVDW =   1
  VDW_RADIUS =    50.000 A
  VDW_S6 =     0.750
  VDW_SR =     1.000
  VDW_D =    20.000
  LVDW_EWALD = F

  Number of pair interactions contributing to vdW energy:  719008
  Edisp (eV):   -3.58215
    FORVDW:  cpu time      0.0360: real time      0.0388

  FORCE on cell =-STRESS in cart. coord.  units (eV):
  Direction    XX          YY          ZZ          XY          YZ          ZX
  --------------------------------------------------------------------------------------
  Alpha Z   869.06037   869.06037   869.06037
  Ewald  160150.40884160150.40884************     0.00000     0.00000    -0.00000
  Hartree170224.59983170224.59983************    -0.00000    -0.00000    -0.00000
  E(xc)   -2455.58926 -2455.58926 -2460.78721    -0.00000     0.00000    -0.00000
  Local  ************************340551.68182    -0.00000     0.00000     0.00000
  n-local -2812.21921 -2813.09232 -2832.85819     0.00000    -0.00000     0.00000
  augment  1047.88786  1047.88786  1038.82294     0.00000     0.00000     0.00000
  Kinetic  7296.32824  7299.09330  7340.69993    -0.00000     0.00000     0.00000
  Fock        0.00000     0.00000     0.00000     0.00000     0.00000     0.00000
  vdW        -5.22364    -5.22364    -4.25555    -0.00000     0.00000     0.00000
  -------------------------------------------------------------------------------------
  Total     -29.45625   -29.45625    -2.67153     0.00000     0.00000     0.00000
  in kB     -30.83252   -30.83252    -2.79635     0.00000     0.00000     0.00000
  external pressure =      -21.49 kB  Pullay stress =        0.00 kB


 VOLUME and BASIS-vectors are now :
 -----------------------------------------------------------------------------
  energy-cutoff  :      600.00
  volume of cell :     1530.66
      direct lattice vectors                 reciprocal lattice vectors
     8.467142631  0.000000000  0.000000000     0.118103597  0.000000000  0.000000000
     0.000000000  8.467142631  0.000000000     0.000000000  0.118103597  0.000000000
     0.000000000  0.000000000 21.350356973     0.000000000  0.000000000  0.046837624

  length of vectors
     8.467142631  8.467142631 21.350356973     0.118103597  0.118103597  0.046837624


 FORCES acting on ions:
    Electron-Ion                     Ewald-Force                    Non-Local-Force
 -----------------------------------------------------------------------------------------------
   0.167E-12 0.940E-13 0.205E+04   0.163E-12 0.102E-12 -.205E+04   -.808E-24 -.276E-23 -.703E+01
   0.696E-12 0.154E-12 0.205E+04   0.176E-12 0.113E-12 -.205E+04   -.877E-23 0.450E-24 -.703E+01
   0.240E-12 -.316E-12 0.680E+03   -.147E-10 0.150E-10 -.680E+03   -.114E-24 -.336E-24 0.496E+00
   0.608E-12 -.624E-12 0.680E+03   0.151E-10 -.149E-10 -.680E+03   -.289E-23 0.618E-24 0.496E+00
   0.220E-12 -.705E-13 -.685E+03   -.148E-10 -.148E-10 0.686E+03   0.605E-23 0.413E-23 -.294E+00
   0.589E-12 0.224E-11 -.685E+03   0.148E-10 0.148E-10 0.686E+03   0.435E-23 -.904E-24 -.294E+00
   0.162E-12 0.470E-12 -.204E+04   -.155E-10 0.156E-10 0.203E+04   0.551E-23 0.180E-22 0.607E+01
   0.677E-12 -.107E-12 -.204E+04   0.156E-10 -.155E-10 0.203E+04   0.112E-23 -.264E-23 0.607E+01
   0.164E-12 0.638E-12 0.205E+04   0.183E-11 -.153E-10 -.205E+04   0.540E-24 0.855E-24 -.703E+01
   0.693E-12 0.113E-11 0.205E+04   -.148E-11 0.154E-10 -.205E+04   -.912E-25 -.106E-22 -.703E+01
   0.242E-12 0.242E-12 0.680E+03   -.148E-10 0.149E-10 -.680E+03   -.221E-23 0.141E-23 0.496E+00
   0.608E-12 -.215E-12 0.680E+03   0.152E-10 -.147E-10 -.680E+03   -.623E-23 0.254E-23 0.496E+00
   0.217E-12 0.725E-12 -.685E+03   -.148E-10 -.151E-10 0.686E+03   -.449E-23 -.839E-24 -.294E+00
   0.584E-12 -.336E-14 -.685E+03   0.147E-10 0.151E-10 0.686E+03   0.607E-23 -.122E-23 -.294E+00
   0.162E-12 0.886E-12 -.204E+04   -.171E-10 0.604E-13 0.203E+04   0.285E-25 0.137E-22 0.607E+01
   0.680E-12 0.423E-12 -.204E+04   0.172E-10 0.281E-13 0.203E+04   0.147E-23 0.827E-24 0.607E+01
   0.894E-12 0.806E-13 0.205E+04   -.168E-10 0.678E-13 -.205E+04   -.158E-23 -.506E-23 -.703E+01
   -.149E-13 0.363E-12 0.205E+04   0.172E-10 0.773E-13 -.205E+04   -.592E-24 0.659E-23 -.703E+01
   0.883E-12 -.466E-11 0.680E+03   -.146E-10 0.150E-10 -.680E+03   0.319E-23 0.269E-23 0.496E+00
   -.576E-13 -.624E-12 0.680E+03   0.150E-10 -.149E-10 -.680E+03   0.239E-23 0.170E-23 0.496E+00
   0.886E-12 -.839E-13 -.685E+03   -.152E-10 -.148E-10 0.686E+03   0.739E-23 0.258E-23 -.294E+00
   -.404E-13 0.232E-12 -.685E+03   0.151E-10 0.148E-10 0.686E+03   -.419E-23 0.270E-24 -.294E+00
   0.897E-12 -.212E-11 -.204E+04   0.167E-11 0.156E-10 0.203E+04   0.323E-23 0.166E-22 0.607E+01
   -.690E-14 -.806E-13 -.204E+04   -.165E-11 -.155E-10 0.203E+04   -.193E-23 0.168E-22 0.607E+01
   0.901E-12 0.295E-12 0.205E+04   -.152E-10 -.153E-10 -.205E+04   0.754E-23 -.109E-23 -.703E+01
   -.158E-13 0.109E-11 0.205E+04   0.155E-10 0.154E-10 -.205E+04   0.125E-22 -.449E-24 -.703E+01
   0.883E-12 -.389E-11 0.680E+03   -.146E-10 0.149E-10 -.680E+03   0.796E-24 -.501E-23 0.496E+00
   -.639E-13 -.269E-13 0.680E+03   0.150E-10 -.147E-10 -.680E+03   -.248E-23 -.160E-23 0.496E+00
   0.896E-12 0.116E-10 -.685E+03   -.152E-10 -.151E-10 0.686E+03   -.640E-23 0.173E-23 -.294E+00
   -.403E-13 0.856E-12 -.685E+03   0.150E-10 0.151E-10 0.686E+03   -.755E-23 -.411E-23 -.294E+00
   0.899E-12 -.511E-11 -.204E+04   0.249E-13 0.249E-13 0.203E+04   -.234E-23 0.780E-23 0.607E+01
   -.109E-13 0.510E-12 -.204E+04   -.355E-13 -.285E-13 0.203E+04   -.623E-23 0.637E-23 0.607E+01
   0.115E-12 -.504E-12 0.509E+03   -.174E-12 -.103E-12 -.509E+03   0.857E-23 0.503E-23 -.940E-01
   0.270E-12 0.148E-11 0.509E+03   -.109E-12 -.702E-13 -.509E+03   -.405E-23 0.696E-23 -.940E-01
   0.696E-13 -.389E-12 0.154E+04   0.823E-11 -.847E-11 -.155E+04   0.227E-22 -.708E-23 0.349E+01
   0.345E-12 -.564E-12 0.154E+04   -.861E-11 0.834E-11 -.155E+04   0.252E-22 -.288E-22 0.349E+01
   0.355E-13 -.175E-12 -.155E+04   -.914E-12 -.870E-12 0.156E+04   0.346E-22 0.654E-23 -.513E+01
   0.325E-12 -.191E-11 -.155E+04   0.722E-12 0.787E-12 0.156E+04   0.204E-23 -.115E-22 -.513E+01
   0.981E-13 -.671E-13 -.507E+03   0.426E-13 -.213E-13 0.507E+03   -.196E-22 -.741E-23 0.362E+00
   0.280E-12 -.166E-12 -.507E+03   0.343E-13 -.139E-13 0.507E+03   -.748E-24 0.121E-22 0.362E+00
   0.103E-12 -.183E-12 0.509E+03   -.171E-12 0.753E-11 -.509E+03   0.112E-22 0.400E-23 -.940E-01
   0.269E-12 -.276E-11 0.509E+03   -.133E-12 -.767E-11 -.509E+03   -.413E-23 -.534E-23 -.940E-01
   0.628E-13 0.107E-12 0.154E+04   0.902E-11 -.702E-13 -.155E+04   -.417E-23 0.143E-22 0.349E+01
   0.363E-12 -.336E-12 0.154E+04   -.934E-11 -.573E-13 -.155E+04   0.378E-22 0.100E-22 0.349E+01
   0.467E-13 -.537E-13 -.155E+04   -.176E-11 -.586E-13 0.156E+04   0.110E-22 0.100E-22 -.513E+01
   0.333E-12 0.200E-11 -.155E+04   0.157E-11 -.746E-13 0.156E+04   -.183E-23 -.600E-23 -.513E+01
   0.102E-12 0.681E-12 -.507E+03   0.782E-13 -.711E-14 0.507E+03   -.108E-22 0.105E-22 0.362E+00
   0.277E-12 -.671E-13 -.507E+03   0.623E-13 -.212E-13 0.507E+03   -.636E-23 0.586E-23 0.362E+00
   0.445E-12 -.500E-12 0.509E+03   0.742E-11 -.564E-13 -.509E+03   -.487E-23 -.296E-23 -.940E-01
   -.484E-13 -.252E-12 0.509E+03   -.773E-11 -.284E-13 -.509E+03   0.152E-22 0.515E-24 -.940E-01
   0.454E-12 -.289E-11 0.154E+04   -.989E-12 -.844E-11 -.155E+04   0.115E-22 0.368E-23 0.349E+01
   -.226E-13 -.524E-12 0.154E+04   0.663E-12 0.836E-11 -.155E+04   0.295E-22 0.102E-22 0.349E+01
   0.413E-12 -.148E-12 -.155E+04   0.752E-12 -.831E-12 0.156E+04   -.110E-23 0.160E-22 -.513E+01
   -.214E-13 -.806E-13 -.155E+04   -.863E-12 0.817E-12 0.156E+04   0.217E-22 0.775E-23 -.513E+01
   0.427E-12 -.228E-11 -.507E+03   0.213E-13 -.213E-13 0.507E+03   -.122E-22 -.280E-23 0.362E+00
   -.244E-13 -.144E-12 -.507E+03   0.639E-13 0.209E-13 0.507E+03   -.487E-24 0.117E-22 0.362E+00
   0.456E-12 0.482E-11 0.509E+03   0.745E-11 0.757E-11 -.509E+03   0.337E-23 -.588E-23 -.940E-01
   -.465E-13 -.638E-13 0.509E+03   -.775E-11 -.763E-11 -.509E+03   0.935E-23 -.445E-23 -.940E-01
   0.445E-12 -.251E-11 0.154E+04   -.134E-12 -.369E-13 -.155E+04   0.231E-22 0.166E-22 0.349E+01
   -.326E-13 -.269E-12 0.154E+04   -.200E-12 -.275E-13 -.155E+04   0.522E-23 -.116E-22 0.349E+01
   0.403E-12 0.401E-11 -.155E+04   -.711E-14 -.284E-13 0.156E+04   -.211E-22 -.703E-23 -.513E+01
   -.186E-13 0.242E-12 -.155E+04   -.425E-13 -.355E-13 0.156E+04   0.257E-22 -.154E-24 -.513E+01
   0.424E-12 -.897E-11 -.507E+03   0.568E-13 0.000E+00 0.507E+03   -.209E-23 0.673E-23 0.362E+00
   -.147E-13 0.280E-12 -.507E+03   0.781E-13 0.714E-14 0.507E+03   -.364E-23 0.135E-22 0.362E+00
 -----------------------------------------------------------------------------------------------
   0.202E-10 -.793E-11 0.171E+02   -.164E-13 0.100E-12 -.200E-10   0.204E-21 0.140E-21 -.170E+02


 POSITION                                       TOTAL-FORCE (eV/Angst)
 -----------------------------------------------------------------------------------
      2.11679      0.00000      7.50000        -0.000000     -0.000000      0.393630
      4.23357      2.11679      7.50000         0.000000      0.000000      0.393630
      2.11679      2.11679      9.61679        -0.000000     -0.000000      0.022367
      4.23357      0.00000      9.61679        -0.000000     -0.000000      0.022367
      2.11679      0.00000     11.74678        -0.000000      0.000000     -0.003231
      4.23357      2.11679     11.74678         0.000000     -0.000000     -0.003231
      2.11679      2.11679     13.84639        -0.000000      0.000000     -0.002186
      4.23357      0.00000     13.84639         0.000000      0.000000     -0.002186
      2.11679      4.23357      7.50000        -0.000000      0.000000      0.393630
      4.23357      6.35036      7.50000         0.000000     -0.000000      0.393630
      2.11679      6.35036      9.61679        -0.000000     -0.000000      0.022367
      4.23357      4.23357      9.61679        -0.000000      0.000000      0.022367
      2.11679      4.23357     11.74678         0.000000      0.000000     -0.003231
      4.23357      6.35036     11.74678        -0.000000      0.000000     -0.003231
      2.11679      6.35036     13.84639         0.000000      0.000000     -0.002186
      4.23357      4.23357     13.84639         0.000000     -0.000000     -0.002186
      6.35036      0.00000      7.50000        -0.000000     -0.000000      0.393630
      0.00000      2.11679      7.50000        -0.000000      0.000000      0.393630
      6.35036      2.11679      9.61679         0.000000     -0.000000      0.022367
      0.00000      0.00000      9.61679        -0.000000     -0.000000      0.022367
      6.35036      0.00000     11.74678        -0.000000      0.000000     -0.003231
      0.00000      2.11679     11.74678         0.000000      0.000000     -0.003231
      6.35036      2.11679     13.84639        -0.000000     -0.000000     -0.002186
      0.00000      0.00000     13.84639         0.000000     -0.000000     -0.002186
      6.35036      4.23357      7.50000        -0.000000     -0.000000      0.393630
      0.00000      6.35036      7.50000        -0.000000      0.000000      0.393630
      6.35036      6.35036      9.61679         0.000000      0.000000      0.022367
      0.00000      4.23357      9.61679        -0.000000     -0.000000      0.022367
      6.35036      4.23357     11.74678        -0.000000      0.000000     -0.003231
      0.00000      6.35036     11.74678        -0.000000      0.000000     -0.003231
      6.35036      6.35036     13.84639        -0.000000     -0.000000     -0.002186
      0.00000      4.23357     13.84639        -0.000000     -0.000000     -0.002186
      2.11679      0.00000      9.61679         0.000000     -0.000000      0.058607
      4.23357      2.11679      9.61679         0.000000      0.000000      0.058607
      2.11679      2.11679      7.50000        -0.000000      0.000000     -0.476270
      4.23357      0.00000      7.50000         0.000000      0.000000     -0.476270
      2.11679      0.00000     13.89450        -0.000000     -0.000000      0.000178
      4.23357      2.11679     13.89450        -0.000000     -0.000000      0.000178
      2.11679      2.11679     11.73874         0.000000     -0.000000      0.006905
      4.23357      0.00000     11.73874         0.000000      0.000000      0.006905
      2.11679      4.23357      9.61679         0.000000     -0.000000      0.058607
      4.23357      6.35036      9.61679         0.000000     -0.000000      0.058607
      2.11679      6.35036      7.50000        -0.000000     -0.000000     -0.476270
      4.23357      4.23357      7.50000         0.000000      0.000000     -0.476270
      2.11679      4.23357     13.89450        -0.000000     -0.000000      0.000178
      4.23357      6.35036     13.89450        -0.000000      0.000000      0.000178
      2.11679      6.35036     11.73874         0.000000     -0.000000      0.006905
      4.23357      4.23357     11.73874         0.000000     -0.000000      0.006905
      6.35036      0.00000      9.61679        -0.000000     -0.000000      0.058607
      0.00000      2.11679      9.61679         0.000000     -0.000000      0.058607
      6.35036      2.11679      7.50000         0.000000      0.000000     -0.476270
      0.00000      0.00000      7.50000        -0.000000      0.000000     -0.476270
      6.35036      0.00000     13.89450        -0.000000     -0.000000      0.000178
      0.00000      2.11679     13.89450        -0.000000      0.000000      0.000178
      6.35036      2.11679     11.73874         0.000000     -0.000000      0.006905
      0.00000      0.00000     11.73874         0.000000     -0.000000      0.006905
      6.35036      4.23357      9.61679        -0.000000      0.000000      0.058607
      0.00000      6.35036      9.61679        -0.000000      0.000000      0.058607
      6.35036      6.35036      7.50000         0.000000     -0.000000     -0.476270
      0.00000      4.23357      7.50000        -0.000000     -0.000000     -0.476270
      6.35036      4.23357     13.89450        -0.000000     -0.000000      0.000178
      0.00000      6.35036     13.89450        -0.000000     -0.000000      0.000178
      6.35036      6.35036     11.73874         0.000000     -0.000000      0.006905
      0.00000      4.23357     11.73874         0.000000     -0.000000      0.006905
 -----------------------------------------------------------------------------------
    total drift:                                0.000000     -0.000000      0.013817


--------------------------------------------------------------------------------------------------------



  FREE ENERGIE OF THE ION-ELECTRON SYSTEM (eV)
  ---------------------------------------------------
  free  energy   TOTEN  =      -375.65096691 eV

  energy  without entropy=     -375.65096691  energy(sigma->0) =     -375.65096691



--------------------------------------------------------------------------------------------------------


    POTLOK:  cpu time      0.1264: real time      0.1266


--------------------------------------------------------------------------------------------------------


     LOOP+:  cpu time     57.4479: real time     57.7964
    4ORBIT:  cpu time      0.0000: real time      0.0000

 total amount of memory used by VASP MPI-rank0   115247. kBytes
=======================================================================

   base      :      30000. kBytes
   nonl-proj :      42333. kBytes
   fftplans  :      14616. kBytes
   grid      :      20512. kBytes
   one-center:        259. kBytes
   wavefun   :       7527. kBytes



 General timing and accounting informations for this job:
 ========================================================

                  Total CPU time used (sec):       60.922
                            User time (sec):       60.250
                          System time (sec):        0.672
                         Elapsed time (sec):       62.408

                   Maximum memory used (kb):      387460.
                   Average memory used (kb):          N/A

                          Minor page faults:        56190
                          Major page faults:          984
                 Voluntary context switches:         4478
