 vasp.6.3.0 20Jan22 (build Apr  1 2022 16:44:48) complex                         
 executed on        HPECrayEX_GCC date 2022.09.24  20:04:28
 running  384 mpi-ranks, with    1 threads/rank
 distrk:  each k-point on  192 cores,    2 groups
 distr:  one band on NCORE=   4 cores,   48 groups


--------------------------------------------------------------------------------------------------------


 INCAR:
   SYSTEM = MgO-rocksalt
   ISMEAR = 0
   SIGMA = 0.05
   EDIFF = 1E-6
   ALGO = ALL
   ISTART = 0
   IBRION = 2
   NSW = 1000
   ISYM = 2
   ISIF = 3
   EDIFFG = -0.005
   LHFCALC = .TRUE.
   GGA = PE
   IVDW = 13
   VDW_S8 = 1.2007
   VDW_A1 = 0.4009
   VDW_A2 = 5.0293
   ENCUT = 600
   PREC = Normal
   LASPH = .TRUE.
   LREAL = .FALSE.
   ISPIN = 1
   NELM = 200
   NELMIN = 8
   NCORE = 4
   KPAR = 2
   LWAVE = .FALSE.
   LCHARG = .FALSE.

 POTCAR:    PAW_PBE Mg_pv 13Apr2007               
 POTCAR:    PAW_PBE O 08Apr2002                   
 -----------------------------------------------------------------------------
|                                                                             |
|           W    W    AA    RRRRR   N    N  II  N    N   GGGG   !!!           |
|           W    W   A  A   R    R  NN   N  II  NN   N  G    G  !!!           |
|           W    W  A    A  R    R  N N  N  II  N N  N  G       !!!           |
|           W WW W  AAAAAA  RRRRR   N  N N  II  N  N N  G  GGG   !            |
|           WW  WW  A    A  R   R   N   NN  II  N   NN  G    G                |
|           W    W  A    A  R    R  N    N  II  N    N   GGGG   !!!           |
|                                                                             |
|     You have selected ISYM=2 for a HF type calculation. This will           |
|     symmetrize the charge density but not the exchange potential. I         |
|     suggest to use ISYM=3 instead. This uses symmetry to obtain the         |
|     orbitals at all k-points in the Brillouin zone, but does not apply      |
|     symmetry to the Hartree potential directly. The resultant charge        |
|     might have lower symmetry than the crystal but, at least, Hartree       |
|     and exchange are fully compatible.                                      |
|                                                                             |
 -----------------------------------------------------------------------------

 POTCAR:    PAW_PBE Mg_pv 13Apr2007               
   SHA256 =  f474ac0dd33840b9ae76c01d57fea79fdf77cdfbb07d5ade72c65f83c709b62b Mg_pv/POTCAR          
   COPYR  = (c) Copyright 13Apr2007 Georg Kresse                                                    
   COPYR  = This file is part of the software VASP. Any use, copying, and all other rights are regul
   COPYR  = If you do not have a valid VASP license, you may not use, copy or distribute this file. 
   VRHFIN =Mg: p6s2                                                                                 
   LEXCH  = PE                                                                                      
   EATOM  =  1056.7344 eV,   77.6678 Ry                                                             
                                                                                                    
   TITEL  = PAW_PBE Mg_pv 13Apr2007                                                                 
   LULTRA =        F    use ultrasoft PP ?                                                          
   IUNSCR =        1    unscreen: 0-lin 1-nonlin 2-no                                               
   RPACOR =    1.500    partial core radius                                                         
   POMASS =   24.305; ZVAL   =    8.000    mass and valenz                                          
   RCORE  =    2.000    outmost cutoff radius                                                       
   RWIGS  =    2.000; RWIGS  =    1.058    wigner-seitz radius (au A)                               
   ENMAX  =  403.929; ENMIN  =  302.947 eV                                                          
   RCLOC  =    1.506    cutoff for local pot                                                        
   LCOR   =        T    correct aug charges                                                         
   LPAW   =        T    paw PP                                                                      
   EAUG   =  758.780                                                                                
   DEXC   =    0.000                                                                                
   RMAX   =    2.045    core radius for proj-oper                                                   
   RAUG   =    1.300    factor for augmentation sphere                                              
   RDEP   =    2.025    radius for radial grids                                                     
   RDEPT  =    1.557    core radius for aug-charge                                                  
                                                                                                    
   Atomic configuration                                                                             
    5 entries                                                                                       
     n  l   j            E        occ.                                                              
     1  0  0.50     -1259.6230   2.0000                                                             
     2  0  0.50       -79.8442   2.0000                                                             
     2  1  1.50       -46.6121   6.0000                                                             
     3  0  0.50        -4.7055   2.0000                                                             
     3  2  1.50        -1.3606   0.0000                                                             
   Description                                                                                      
     l       E           TYP  RCUT    TYP  RCUT                                                     
     1    -46.6121073     23  1.600                                                                 
     1      2.7211652     23  1.600                                                                 
     0     -4.7054661     23  2.000                                                                 
     0     61.2262170     23  2.000                                                                 
     2     -1.3605826     23  2.000                                                                 
  local pseudopotential read in
  partial core-charges read in
  partial kinetic energy density read in
  atomic valenz-charges read in
  non local Contribution for L=           1  read in
    real space projection operators read in
  non local Contribution for L=           1  read in
    real space projection operators read in
  non local Contribution for L=           0  read in
    real space projection operators read in
  non local Contribution for L=           0  read in
    real space projection operators read in
  non local Contribution for L=           2  read in
    real space projection operators read in
    PAW grid and wavefunctions read in

   number of l-projection  operators is LMAX  =           5
   number of lm-projection operators is LMMAX =          13

 POTCAR:    PAW_PBE O 08Apr2002                   
   SHA256 =  818f92134a0a090dccd8ba1447fa70422a3b330e708bb4f08108d8ae51209ddf O/POTCAR              
   COPYR  = (c) Copyright 08Apr2002 Georg Kresse                                                    
   COPYR  = This file is part of the software VASP. Any use, copying, and all other rights are regul
   COPYR  = If you do not have a valid VASP license, you may not use, copy or distribute this file. 
   VRHFIN =O: s2p4                                                                                  
   LEXCH  = PE                                                                                      
   EATOM  =   432.3788 eV,   31.7789 Ry                                                             
                                                                                                    
   TITEL  = PAW_PBE O 08Apr2002                                                                     
   LULTRA =        F    use ultrasoft PP ?                                                          
   IUNSCR =        1    unscreen: 0-lin 1-nonlin 2-no                                               
   RPACOR =    1.200    partial core radius                                                         
   POMASS =   16.000; ZVAL   =    6.000    mass and valenz                                          
   RCORE  =    1.520    outmost cutoff radius                                                       
   RWIGS  =    1.550; RWIGS  =    0.820    wigner-seitz radius (au A)                               
   ENMAX  =  400.000; ENMIN  =  300.000 eV                                                          
   ICORE  =        2    local potential                                                             
   LCOR   =        T    correct aug charges                                                         
   LPAW   =        T    paw PP                                                                      
   EAUG   =  605.392                                                                                
   DEXC   =    0.000                                                                                
   RMAX   =    1.553    core radius for proj-oper                                                   
   RAUG   =    1.300    factor for augmentation sphere                                              
   RDEP   =    1.550    radius for radial grids                                                     
   RDEPT  =    1.329    core radius for aug-charge                                                  
                                                                                                    
   Atomic configuration                                                                             
    4 entries                                                                                       
     n  l   j            E        occ.                                                              
     1  0  0.50      -514.6923   2.0000                                                             
     2  0  0.50       -23.9615   2.0000                                                             
     2  1  0.50        -9.0305   4.0000                                                             
     3  2  1.50        -9.5241   0.0000                                                             
   Description                                                                                      
     l       E           TYP  RCUT    TYP  RCUT                                                     
     0    -23.9615318     23  1.200                                                                 
     0     -9.5240782     23  1.200                                                                 
     1     -9.0304911     23  1.520                                                                 
     1      8.1634956     23  1.520                                                                 
     2     -9.5240782      7  1.500                                                                 
  local pseudopotential read in
  partial core-charges read in
  partial kinetic energy density read in
  kinetic energy density of atom read in
  atomic valenz-charges read in
  non local Contribution for L=           0  read in
    real space projection operators read in
  non local Contribution for L=           0  read in
    real space projection operators read in
  non local Contribution for L=           1  read in
    real space projection operators read in
  non local Contribution for L=           1  read in
    real space projection operators read in
    PAW grid and wavefunctions read in

   number of l-projection  operators is LMAX  =           4
   number of lm-projection operators is LMMAX =           8

  PAW_PBE Mg_pv 13Apr2007               :
 energy of atom  1       EATOM=-1056.7344
 kinetic energy error for atom=    0.0221 (will be added to EATOM!!)
  PAW_PBE O 08Apr2002                   :
 energy of atom  2       EATOM= -432.3788
 kinetic energy error for atom=    0.0168 (will be added to EATOM!!)


 POSCAR: Mg4 O4
  positions in direct lattice
  velocities in cartesian coordinates
 -----------------------------------------------------------------------------
|                                                                             |
|           W    W    AA    RRRRR   N    N  II  N    N   GGGG   !!!           |
|           W    W   A  A   R    R  NN   N  II  NN   N  G    G  !!!           |
|           W    W  A    A  R    R  N N  N  II  N N  N  G       !!!           |
|           W WW W  AAAAAA  RRRRR   N  N N  II  N  N N  G  GGG   !            |
|           WW  WW  A    A  R   R   N   NN  II  N   NN  G    G                |
|           W    W  A    A  R    R  N    N  II  N    N   GGGG   !!!           |
|                                                                             |
|     Specifying the vdW parameters                                           |
|     VDW_S8 = 1.201                                                          |
|     VDW_A1 = 0.401                                                          |
|     VDW_A2 = 5.029                                                          |
|     in the INCAR file will overwrite the defaults for pbe0. Please make     |
|     sure that is what you intended.                                         |
|                                                                             |
 -----------------------------------------------------------------------------

 exchange correlation table for  LEXCH =        8
   RHO(1)=    0.500       N(1)  =     2000
   RHO(2)=  100.500       N(2)  =     4000



--------------------------------------------------------------------------------------------------------


 ion  position               nearest neighbor table
   1  0.000  0.000  0.000-   5 2.09   7 2.09   8 2.09   7 2.09   8 2.09   5 2.09
   2  0.000  0.500  0.500-   6 2.09   7 2.09   8 2.09   8 2.09   7 2.09   6 2.09
   3  0.500  0.000  0.500-   5 2.09   6 2.09   7 2.09   5 2.09   6 2.09   7 2.09
   4  0.500  0.500  0.000-   5 2.09   6 2.09   8 2.09   6 2.09   5 2.09   8 2.09
   5  0.500  0.000  0.000-   1 2.09   3 2.09   4 2.09   3 2.09   4 2.09   1 2.09
   6  0.500  0.500  0.500-   2 2.09   3 2.09   4 2.09   4 2.09   3 2.09   2 2.09
   7  0.000  0.000  0.500-   1 2.09   2 2.09   3 2.09   1 2.09   2 2.09   3 2.09
   8  0.000  0.500  0.000-   1 2.09   2 2.09   4 2.09   2 2.09   1 2.09   4 2.09

  LATTYP: Found a simple cubic cell.
 ALAT       =     4.1745559133
  
  Lattice vectors:
  
 A1 = (   4.1745559133,  -0.0000000000,  -0.0000000000)
 A2 = (  -0.0000000000,   4.1745559133,  -0.0000000000)
 A3 = (   0.0000000000,   0.0000000000,   4.1745559133)


Analysis of symmetry for initial positions (statically):
=====================================================================
 Subroutine PRICEL returns following result:
 
  LATTYP: Found a face centered cubic cell.
 ALAT       =     4.1745559133
  
  Lattice vectors:
  
 A1 = (   2.0872779566,  -2.0872779566,   0.0000000000)
 A2 = (   2.0872779566,   0.0000000000,   2.0872779566)
 A3 = (   0.0000000000,  -2.0872779566,   2.0872779566)
 
   4 primitive cells build up your supercell.
 

 Routine SETGRP: Setting up the symmetry group for a 
 simple cubic supercell.


 Subroutine GETGRP returns: Found 48 space group operations
 (whereof 48 operations were pure point group operations)
 out of a pool of 48 trial point group operations.


The static configuration has the point symmetry O_h .


Analysis of symmetry for dynamics (positions and initial velocities):
=====================================================================
 Subroutine PRICEL returns following result:
 
  LATTYP: Found a face centered cubic cell.
 ALAT       =     4.1745559133
  
  Lattice vectors:
  
 A1 = (   2.0872779566,  -2.0872779566,   0.0000000000)
 A2 = (   2.0872779566,   0.0000000000,   2.0872779566)
 A3 = (   0.0000000000,  -2.0872779566,   2.0872779566)
 
   4 primitive cells build up your supercell.
 

 Routine SETGRP: Setting up the symmetry group for a 
 simple cubic supercell.


 Subroutine GETGRP returns: Found 48 space group operations
 (whereof 48 operations were pure point group operations)
 out of a pool of 48 trial point group operations.


The dynamic configuration has the point symmetry O_h .


 Subroutine INISYM returns: Found 48 space group operations
 (whereof 48 operations are pure point group operations),
 and found     4 'primitive' translations


----------------------------------------------------------------------------------------

                                     Primitive cell                                     

  volume of cell :      18.1874

  direct lattice vectors                    reciprocal lattice vectors
     2.087277957 -2.087277957  0.000000000     0.239546438 -0.239546438 -0.239546438
     2.087277957  0.000000000  2.087277957     0.239546438  0.239546438  0.239546438
     0.000000000 -2.087277957  2.087277957    -0.239546438 -0.239546438  0.239546438

  length of vectors
     2.951856795  2.951856795  2.951856795     0.414906602  0.414906602  0.414906602

  position of ions in fractional coordinates (direct lattice)
     0.000000000  0.000000000  0.000000000
     0.500000000  0.500000000  0.500000000

  ion indices of the primitive-cell ions
   primitive index   ion index
                 1           1
                 2           5

----------------------------------------------------------------------------------------



 KPOINTS: pymatgen v2020.8.13 with grid density = 

Automatic generation of k-mesh.
 Grid dimensions read from file:
 generate k-points for:    8    8    8

 Generating k-lattice:

  Cartesian coordinates                     Fractional coordinates (reciprocal lattice)
     0.029943305  0.000000000 -0.000000000     0.125000000  0.000000000  0.000000000
     0.000000000  0.029943305 -0.000000000     0.000000000  0.125000000  0.000000000
     0.000000000  0.000000000  0.029943305     0.000000000  0.000000000  0.125000000

  Length of vectors
     0.029943305  0.029943305  0.029943305

  Shift w.r.t. Gamma in fractional coordinates (k-lattice)
     0.000000000  0.000000000  0.000000000

 
 Subroutine IBZKPT returns following result:
 ===========================================
 
 Found     35 irreducible k-points:
 
 Following reciprocal coordinates:
            Coordinates               Weight
  0.000000  0.000000  0.000000      1.000000
  0.125000  0.000000  0.000000      6.000000
  0.250000  0.000000  0.000000      6.000000
  0.375000  0.000000  0.000000      6.000000
  0.500000  0.000000  0.000000      3.000000
  0.125000  0.125000  0.000000     12.000000
  0.250000  0.125000  0.000000     24.000000
  0.375000  0.125000  0.000000     24.000000
  0.500000  0.125000  0.000000     12.000000
  0.250000  0.250000  0.000000     12.000000
  0.375000  0.250000  0.000000     24.000000
  0.500000  0.250000  0.000000     12.000000
  0.375000  0.375000  0.000000     12.000000
  0.500000  0.375000  0.000000     12.000000
  0.500000  0.500000  0.000000      3.000000
  0.125000  0.125000  0.125000      8.000000
  0.250000  0.125000  0.125000     24.000000
  0.375000  0.125000  0.125000     24.000000
  0.500000  0.125000  0.125000     12.000000
  0.250000  0.250000  0.125000     24.000000
  0.375000  0.250000  0.125000     48.000000
  0.500000  0.250000  0.125000     24.000000
  0.375000  0.375000  0.125000     24.000000
  0.500000  0.375000  0.125000     24.000000
  0.500000  0.500000  0.125000      6.000000
  0.250000  0.250000  0.250000      8.000000
  0.375000  0.250000  0.250000     24.000000
  0.500000  0.250000  0.250000     12.000000
  0.375000  0.375000  0.250000     24.000000
  0.500000  0.375000  0.250000     24.000000
  0.500000  0.500000  0.250000      6.000000
  0.375000  0.375000  0.375000      8.000000
  0.500000  0.375000  0.375000     12.000000
  0.500000  0.500000  0.375000      6.000000
  0.500000  0.500000  0.500000      1.000000
 
 Following cartesian coordinates:
            Coordinates               Weight
  0.000000  0.000000  0.000000      1.000000
  0.029943  0.000000  0.000000      6.000000
  0.059887  0.000000  0.000000      6.000000
  0.089830  0.000000  0.000000      6.000000
  0.119773  0.000000  0.000000      3.000000
  0.029943  0.029943  0.000000     12.000000
  0.059887  0.029943  0.000000     24.000000
  0.089830  0.029943  0.000000     24.000000
  0.119773  0.029943  0.000000     12.000000
  0.059887  0.059887  0.000000     12.000000
  0.089830  0.059887  0.000000     24.000000
  0.119773  0.059887  0.000000     12.000000
  0.089830  0.089830  0.000000     12.000000
  0.119773  0.089830  0.000000     12.000000
  0.119773  0.119773  0.000000      3.000000
  0.029943  0.029943  0.029943      8.000000
  0.059887  0.029943  0.029943     24.000000
  0.089830  0.029943  0.029943     24.000000
  0.119773  0.029943  0.029943     12.000000
  0.059887  0.059887  0.029943     24.000000
  0.089830  0.059887  0.029943     48.000000
  0.119773  0.059887  0.029943     24.000000
  0.089830  0.089830  0.029943     24.000000
  0.119773  0.089830  0.029943     24.000000
  0.119773  0.119773  0.029943      6.000000
  0.059887  0.059887  0.059887      8.000000
  0.089830  0.059887  0.059887     24.000000
  0.119773  0.059887  0.059887     12.000000
  0.089830  0.089830  0.059887     24.000000
  0.119773  0.089830  0.059887     24.000000
  0.119773  0.119773  0.059887      6.000000
  0.089830  0.089830  0.089830      8.000000
  0.119773  0.089830  0.089830     12.000000
  0.119773  0.119773  0.089830      6.000000
  0.119773  0.119773  0.119773      1.000000
 
 
 Subroutine IBZKPT_HF returns following result:
 ==============================================
 
 Found    512 k-points in 1st BZ
 the following    512 k-points will be used (e.g. in the exchange kernel)
 Following reciprocal coordinates:   # in IRBZ
  0.000000  0.000000  0.000000    0.00195312   1 t-inv F
  0.125000  0.000000  0.000000    0.00195312   2 t-inv F
  0.250000  0.000000  0.000000    0.00195312   3 t-inv F
  0.375000  0.000000  0.000000    0.00195312   4 t-inv F
  0.500000  0.000000  0.000000    0.00195312   5 t-inv F
  0.125000  0.125000  0.000000    0.00195312   6 t-inv F
  0.250000  0.125000  0.000000    0.00195312   7 t-inv F
  0.375000  0.125000  0.000000    0.00195312   8 t-inv F
  0.500000  0.125000  0.000000    0.00195312   9 t-inv F
  0.250000  0.250000  0.000000    0.00195312  10 t-inv F
  0.375000  0.250000  0.000000    0.00195312  11 t-inv F
  0.500000  0.250000  0.000000    0.00195312  12 t-inv F
  0.375000  0.375000  0.000000    0.00195312  13 t-inv F
  0.500000  0.375000  0.000000    0.00195312  14 t-inv F
  0.500000  0.500000  0.000000    0.00195312  15 t-inv F
  0.125000  0.125000  0.125000    0.00195312  16 t-inv F
  0.250000  0.125000  0.125000    0.00195312  17 t-inv F
  0.375000  0.125000  0.125000    0.00195312  18 t-inv F
  0.500000  0.125000  0.125000    0.00195312  19 t-inv F
  0.250000  0.250000  0.125000    0.00195312  20 t-inv F
  0.375000  0.250000  0.125000    0.00195312  21 t-inv F
  0.500000  0.250000  0.125000    0.00195312  22 t-inv F
  0.375000  0.375000  0.125000    0.00195312  23 t-inv F
  0.500000  0.375000  0.125000    0.00195312  24 t-inv F
  0.500000  0.500000  0.125000    0.00195312  25 t-inv F
  0.250000  0.250000  0.250000    0.00195312  26 t-inv F
  0.375000  0.250000  0.250000    0.00195312  27 t-inv F
  0.500000  0.250000  0.250000    0.00195312  28 t-inv F
  0.375000  0.375000  0.250000    0.00195312  29 t-inv F
  0.500000  0.375000  0.250000    0.00195312  30 t-inv F
  0.500000  0.500000  0.250000    0.00195312  31 t-inv F
  0.375000  0.375000  0.375000    0.00195312  32 t-inv F
  0.500000  0.375000  0.375000    0.00195312  33 t-inv F
  0.500000  0.500000  0.375000    0.00195312  34 t-inv F
  0.500000  0.500000  0.500000    0.00195312  35 t-inv F
 -0.125000 -0.000000 -0.000000    0.00195312   2 t-inv F
  0.000000  0.125000  0.000000    0.00195312   2 t-inv F
 -0.000000 -0.125000 -0.000000    0.00195312   2 t-inv F
  0.000000  0.000000  0.125000    0.00195312   2 t-inv F
 -0.000000 -0.000000 -0.125000    0.00195312   2 t-inv F
 -0.250000 -0.000000 -0.000000    0.00195312   3 t-inv F
  0.000000  0.250000  0.000000    0.00195312   3 t-inv F
 -0.000000 -0.250000 -0.000000    0.00195312   3 t-inv F
  0.000000  0.000000  0.250000    0.00195312   3 t-inv F
 -0.000000 -0.000000 -0.250000    0.00195312   3 t-inv F
 -0.375000 -0.000000 -0.000000    0.00195312   4 t-inv F
  0.000000  0.375000  0.000000    0.00195312   4 t-inv F
 -0.000000 -0.375000 -0.000000    0.00195312   4 t-inv F
  0.000000  0.000000  0.375000    0.00195312   4 t-inv F
 -0.000000 -0.000000 -0.375000    0.00195312   4 t-inv F
  0.000000  0.500000  0.000000    0.00195312   5 t-inv F
  0.000000  0.000000  0.500000    0.00195312   5 t-inv F
 -0.125000 -0.125000 -0.000000    0.00195312   6 t-inv F
  0.000000  0.125000  0.125000    0.00195312   6 t-inv F
 -0.000000 -0.125000 -0.125000    0.00195312   6 t-inv F
  0.125000  0.000000  0.125000    0.00195312   6 t-inv F
 -0.125000 -0.000000 -0.125000    0.00195312   6 t-inv F
 -0.125000  0.125000  0.000000    0.00195312   6 t-inv F
  0.125000 -0.125000 -0.000000    0.00195312   6 t-inv F
 -0.125000  0.000000  0.125000    0.00195312   6 t-inv F
  0.125000 -0.000000 -0.125000    0.00195312   6 t-inv F
 -0.000000 -0.125000  0.125000    0.00195312   6 t-inv F
  0.000000  0.125000 -0.125000    0.00195312   6 t-inv F
 -0.250000 -0.125000 -0.000000    0.00195312   7 t-inv F
  0.000000  0.250000  0.125000    0.00195312   7 t-inv F
 -0.000000 -0.250000 -0.125000    0.00195312   7 t-inv F
  0.125000  0.000000  0.250000    0.00195312   7 t-inv F
 -0.125000 -0.000000 -0.250000    0.00195312   7 t-inv F
 -0.125000  0.250000  0.000000    0.00195312   7 t-inv F
  0.125000 -0.250000 -0.000000    0.00195312   7 t-inv F
 -0.250000  0.000000  0.125000    0.00195312   7 t-inv F
  0.250000 -0.000000 -0.125000    0.00195312   7 t-inv F
 -0.000000  0.125000  0.250000    0.00195312   7 t-inv F
  0.000000 -0.125000 -0.250000    0.00195312   7 t-inv F
 -0.000000 -0.250000  0.125000    0.00195312   7 t-inv F
  0.000000  0.250000 -0.125000    0.00195312   7 t-inv F
 -0.125000 -0.000000  0.250000    0.00195312   7 t-inv F
  0.125000  0.000000 -0.250000    0.00195312   7 t-inv F
  0.250000 -0.000000  0.125000    0.00195312   7 t-inv F
 -0.250000  0.000000 -0.125000    0.00195312   7 t-inv F
  0.000000 -0.125000  0.250000    0.00195312   7 t-inv F
 -0.000000  0.125000 -0.250000    0.00195312   7 t-inv F
  0.250000 -0.125000 -0.000000    0.00195312   7 t-inv F
 -0.250000  0.125000  0.000000    0.00195312   7 t-inv F
  0.125000  0.250000 -0.000000    0.00195312   7 t-inv F
 -0.125000 -0.250000  0.000000    0.00195312   7 t-inv F
 -0.375000 -0.125000 -0.000000    0.00195312   8 t-inv F
  0.000000  0.375000  0.125000    0.00195312   8 t-inv F
 -0.000000 -0.375000 -0.125000    0.00195312   8 t-inv F
  0.125000  0.000000  0.375000    0.00195312   8 t-inv F
 -0.125000 -0.000000 -0.375000    0.00195312   8 t-inv F
 -0.125000  0.375000  0.000000    0.00195312   8 t-inv F
  0.125000 -0.375000 -0.000000    0.00195312   8 t-inv F
 -0.375000  0.000000  0.125000    0.00195312   8 t-inv F
  0.375000 -0.000000 -0.125000    0.00195312   8 t-inv F
 -0.000000  0.125000  0.375000    0.00195312   8 t-inv F
  0.000000 -0.125000 -0.375000    0.00195312   8 t-inv F
 -0.000000 -0.375000  0.125000    0.00195312   8 t-inv F
  0.000000  0.375000 -0.125000    0.00195312   8 t-inv F
 -0.125000 -0.000000  0.375000    0.00195312   8 t-inv F
  0.125000  0.000000 -0.375000    0.00195312   8 t-inv F
  0.375000 -0.000000  0.125000    0.00195312   8 t-inv F
 -0.375000  0.000000 -0.125000    0.00195312   8 t-inv F
  0.000000 -0.125000  0.375000    0.00195312   8 t-inv F
 -0.000000  0.125000 -0.375000    0.00195312   8 t-inv F
  0.375000 -0.125000 -0.000000    0.00195312   8 t-inv F
 -0.375000  0.125000  0.000000    0.00195312   8 t-inv F
  0.125000  0.375000 -0.000000    0.00195312   8 t-inv F
 -0.125000 -0.375000  0.000000    0.00195312   8 t-inv F
 -0.500000 -0.125000 -0.000000    0.00195312   9 t-inv F
  0.000000  0.500000  0.125000    0.00195312   9 t-inv F
 -0.000000 -0.500000 -0.125000    0.00195312   9 t-inv F
  0.125000  0.000000  0.500000    0.00195312   9 t-inv F
 -0.125000 -0.000000 -0.500000    0.00195312   9 t-inv F
 -0.125000  0.500000  0.000000    0.00195312   9 t-inv F
  0.125000 -0.500000 -0.000000    0.00195312   9 t-inv F
 -0.500000  0.000000  0.125000    0.00195312   9 t-inv F
  0.500000 -0.000000 -0.125000    0.00195312   9 t-inv F
 -0.000000  0.125000  0.500000    0.00195312   9 t-inv F
  0.000000 -0.125000 -0.500000    0.00195312   9 t-inv F
 -0.250000 -0.250000 -0.000000    0.00195312  10 t-inv F
  0.000000  0.250000  0.250000    0.00195312  10 t-inv F
 -0.000000 -0.250000 -0.250000    0.00195312  10 t-inv F
  0.250000  0.000000  0.250000    0.00195312  10 t-inv F
 -0.250000 -0.000000 -0.250000    0.00195312  10 t-inv F
 -0.250000  0.250000  0.000000    0.00195312  10 t-inv F
  0.250000 -0.250000 -0.000000    0.00195312  10 t-inv F
 -0.250000  0.000000  0.250000    0.00195312  10 t-inv F
  0.250000 -0.000000 -0.250000    0.00195312  10 t-inv F
 -0.000000 -0.250000  0.250000    0.00195312  10 t-inv F
  0.000000  0.250000 -0.250000    0.00195312  10 t-inv F
 -0.375000 -0.250000 -0.000000    0.00195312  11 t-inv F
  0.000000  0.375000  0.250000    0.00195312  11 t-inv F
 -0.000000 -0.375000 -0.250000    0.00195312  11 t-inv F
  0.250000  0.000000  0.375000    0.00195312  11 t-inv F
 -0.250000 -0.000000 -0.375000    0.00195312  11 t-inv F
 -0.250000  0.375000  0.000000    0.00195312  11 t-inv F
  0.250000 -0.375000 -0.000000    0.00195312  11 t-inv F
 -0.375000  0.000000  0.250000    0.00195312  11 t-inv F
  0.375000 -0.000000 -0.250000    0.00195312  11 t-inv F
 -0.000000  0.250000  0.375000    0.00195312  11 t-inv F
  0.000000 -0.250000 -0.375000    0.00195312  11 t-inv F
 -0.000000 -0.375000  0.250000    0.00195312  11 t-inv F
  0.000000  0.375000 -0.250000    0.00195312  11 t-inv F
 -0.250000 -0.000000  0.375000    0.00195312  11 t-inv F
  0.250000  0.000000 -0.375000    0.00195312  11 t-inv F
  0.375000 -0.000000  0.250000    0.00195312  11 t-inv F
 -0.375000  0.000000 -0.250000    0.00195312  11 t-inv F
  0.000000 -0.250000  0.375000    0.00195312  11 t-inv F
 -0.000000  0.250000 -0.375000    0.00195312  11 t-inv F
  0.375000 -0.250000 -0.000000    0.00195312  11 t-inv F
 -0.375000  0.250000  0.000000    0.00195312  11 t-inv F
  0.250000  0.375000 -0.000000    0.00195312  11 t-inv F
 -0.250000 -0.375000  0.000000    0.00195312  11 t-inv F
 -0.500000 -0.250000 -0.000000    0.00195312  12 t-inv F
  0.000000  0.500000  0.250000    0.00195312  12 t-inv F
 -0.000000 -0.500000 -0.250000    0.00195312  12 t-inv F
  0.250000  0.000000  0.500000    0.00195312  12 t-inv F
 -0.250000 -0.000000 -0.500000    0.00195312  12 t-inv F
 -0.250000  0.500000  0.000000    0.00195312  12 t-inv F
  0.250000 -0.500000 -0.000000    0.00195312  12 t-inv F
 -0.500000  0.000000  0.250000    0.00195312  12 t-inv F
  0.500000 -0.000000 -0.250000    0.00195312  12 t-inv F
 -0.000000  0.250000  0.500000    0.00195312  12 t-inv F
  0.000000 -0.250000 -0.500000    0.00195312  12 t-inv F
 -0.375000 -0.375000 -0.000000    0.00195312  13 t-inv F
  0.000000  0.375000  0.375000    0.00195312  13 t-inv F
 -0.000000 -0.375000 -0.375000    0.00195312  13 t-inv F
  0.375000  0.000000  0.375000    0.00195312  13 t-inv F
 -0.375000 -0.000000 -0.375000    0.00195312  13 t-inv F
 -0.375000  0.375000  0.000000    0.00195312  13 t-inv F
  0.375000 -0.375000 -0.000000    0.00195312  13 t-inv F
 -0.375000  0.000000  0.375000    0.00195312  13 t-inv F
  0.375000 -0.000000 -0.375000    0.00195312  13 t-inv F
 -0.000000 -0.375000  0.375000    0.00195312  13 t-inv F
  0.000000  0.375000 -0.375000    0.00195312  13 t-inv F
 -0.500000 -0.375000 -0.000000    0.00195312  14 t-inv F
  0.000000  0.500000  0.375000    0.00195312  14 t-inv F
 -0.000000 -0.500000 -0.375000    0.00195312  14 t-inv F
  0.375000  0.000000  0.500000    0.00195312  14 t-inv F
 -0.375000 -0.000000 -0.500000    0.00195312  14 t-inv F
 -0.375000  0.500000  0.000000    0.00195312  14 t-inv F
  0.375000 -0.500000 -0.000000    0.00195312  14 t-inv F
 -0.500000  0.000000  0.375000    0.00195312  14 t-inv F
  0.500000 -0.000000 -0.375000    0.00195312  14 t-inv F
 -0.000000  0.375000  0.500000    0.00195312  14 t-inv F
  0.000000 -0.375000 -0.500000    0.00195312  14 t-inv F
  0.000000  0.500000  0.500000    0.00195312  15 t-inv F
  0.500000  0.000000  0.500000    0.00195312  15 t-inv F
 -0.125000 -0.125000 -0.125000    0.00195312  16 t-inv F
 -0.125000  0.125000  0.125000    0.00195312  16 t-inv F
  0.125000 -0.125000 -0.125000    0.00195312  16 t-inv F
 -0.125000 -0.125000  0.125000    0.00195312  16 t-inv F
  0.125000  0.125000 -0.125000    0.00195312  16 t-inv F
  0.125000 -0.125000  0.125000    0.00195312  16 t-inv F
 -0.125000  0.125000 -0.125000    0.00195312  16 t-inv F
 -0.250000 -0.125000 -0.125000    0.00195312  17 t-inv F
  0.125000  0.250000  0.125000    0.00195312  17 t-inv F
 -0.125000 -0.250000 -0.125000    0.00195312  17 t-inv F
  0.125000  0.125000  0.250000    0.00195312  17 t-inv F
 -0.125000 -0.125000 -0.250000    0.00195312  17 t-inv F
 -0.125000  0.250000  0.125000    0.00195312  17 t-inv F
  0.125000 -0.250000 -0.125000    0.00195312  17 t-inv F
 -0.250000  0.125000  0.125000    0.00195312  17 t-inv F
  0.250000 -0.125000 -0.125000    0.00195312  17 t-inv F
 -0.125000  0.125000  0.250000    0.00195312  17 t-inv F
  0.125000 -0.125000 -0.250000    0.00195312  17 t-inv F
 -0.250000 -0.125000  0.125000    0.00195312  17 t-inv F
  0.250000  0.125000 -0.125000    0.00195312  17 t-inv F
 -0.125000 -0.250000  0.125000    0.00195312  17 t-inv F
  0.125000  0.250000 -0.125000    0.00195312  17 t-inv F
 -0.125000 -0.125000  0.250000    0.00195312  17 t-inv F
  0.125000  0.125000 -0.250000    0.00195312  17 t-inv F
  0.125000 -0.250000  0.125000    0.00195312  17 t-inv F
 -0.125000  0.250000 -0.125000    0.00195312  17 t-inv F
  0.250000 -0.125000  0.125000    0.00195312  17 t-inv F
 -0.250000  0.125000 -0.125000    0.00195312  17 t-inv F
  0.125000 -0.125000  0.250000    0.00195312  17 t-inv F
 -0.125000  0.125000 -0.250000    0.00195312  17 t-inv F
 -0.375000 -0.125000 -0.125000    0.00195312  18 t-inv F
  0.125000  0.375000  0.125000    0.00195312  18 t-inv F
 -0.125000 -0.375000 -0.125000    0.00195312  18 t-inv F
  0.125000  0.125000  0.375000    0.00195312  18 t-inv F
 -0.125000 -0.125000 -0.375000    0.00195312  18 t-inv F
 -0.125000  0.375000  0.125000    0.00195312  18 t-inv F
  0.125000 -0.375000 -0.125000    0.00195312  18 t-inv F
 -0.375000  0.125000  0.125000    0.00195312  18 t-inv F
  0.375000 -0.125000 -0.125000    0.00195312  18 t-inv F
 -0.125000  0.125000  0.375000    0.00195312  18 t-inv F
  0.125000 -0.125000 -0.375000    0.00195312  18 t-inv F
 -0.375000 -0.125000  0.125000    0.00195312  18 t-inv F
  0.375000  0.125000 -0.125000    0.00195312  18 t-inv F
 -0.125000 -0.375000  0.125000    0.00195312  18 t-inv F
  0.125000  0.375000 -0.125000    0.00195312  18 t-inv F
 -0.125000 -0.125000  0.375000    0.00195312  18 t-inv F
  0.125000  0.125000 -0.375000    0.00195312  18 t-inv F
  0.125000 -0.375000  0.125000    0.00195312  18 t-inv F
 -0.125000  0.375000 -0.125000    0.00195312  18 t-inv F
  0.375000 -0.125000  0.125000    0.00195312  18 t-inv F
 -0.375000  0.125000 -0.125000    0.00195312  18 t-inv F
  0.125000 -0.125000  0.375000    0.00195312  18 t-inv F
 -0.125000  0.125000 -0.375000    0.00195312  18 t-inv F
 -0.500000 -0.125000 -0.125000    0.00195312  19 t-inv F
  0.125000  0.500000  0.125000    0.00195312  19 t-inv F
 -0.125000 -0.500000 -0.125000    0.00195312  19 t-inv F
  0.125000  0.125000  0.500000    0.00195312  19 t-inv F
 -0.125000 -0.125000 -0.500000    0.00195312  19 t-inv F
 -0.125000  0.500000  0.125000    0.00195312  19 t-inv F
  0.125000 -0.500000 -0.125000    0.00195312  19 t-inv F
 -0.125000  0.125000  0.500000    0.00195312  19 t-inv F
  0.125000 -0.125000 -0.500000    0.00195312  19 t-inv F
 -0.500000 -0.125000  0.125000    0.00195312  19 t-inv F
  0.500000  0.125000 -0.125000    0.00195312  19 t-inv F
 -0.250000 -0.250000 -0.125000    0.00195312  20 t-inv F
  0.125000  0.250000  0.250000    0.00195312  20 t-inv F
 -0.125000 -0.250000 -0.250000    0.00195312  20 t-inv F
  0.250000  0.125000  0.250000    0.00195312  20 t-inv F
 -0.250000 -0.125000 -0.250000    0.00195312  20 t-inv F
 -0.250000  0.250000  0.125000    0.00195312  20 t-inv F
  0.250000 -0.250000 -0.125000    0.00195312  20 t-inv F
 -0.250000  0.125000  0.250000    0.00195312  20 t-inv F
  0.250000 -0.125000 -0.250000    0.00195312  20 t-inv F
 -0.125000  0.250000  0.250000    0.00195312  20 t-inv F
  0.125000 -0.250000 -0.250000    0.00195312  20 t-inv F
 -0.250000 -0.250000  0.125000    0.00195312  20 t-inv F
  0.250000  0.250000 -0.125000    0.00195312  20 t-inv F
 -0.125000 -0.250000  0.250000    0.00195312  20 t-inv F
  0.125000  0.250000 -0.250000    0.00195312  20 t-inv F
 -0.250000 -0.125000  0.250000    0.00195312  20 t-inv F
  0.250000  0.125000 -0.250000    0.00195312  20 t-inv F
  0.250000 -0.250000  0.125000    0.00195312  20 t-inv F
 -0.250000  0.250000 -0.125000    0.00195312  20 t-inv F
  0.250000 -0.125000  0.250000    0.00195312  20 t-inv F
 -0.250000  0.125000 -0.250000    0.00195312  20 t-inv F
  0.125000 -0.250000  0.250000    0.00195312  20 t-inv F
 -0.125000  0.250000 -0.250000    0.00195312  20 t-inv F
 -0.375000 -0.250000 -0.125000    0.00195312  21 t-inv F
  0.125000  0.375000  0.250000    0.00195312  21 t-inv F
 -0.125000 -0.375000 -0.250000    0.00195312  21 t-inv F
  0.250000  0.125000  0.375000    0.00195312  21 t-inv F
 -0.250000 -0.125000 -0.375000    0.00195312  21 t-inv F
 -0.250000  0.375000  0.125000    0.00195312  21 t-inv F
  0.250000 -0.375000 -0.125000    0.00195312  21 t-inv F
 -0.375000  0.125000  0.250000    0.00195312  21 t-inv F
  0.375000 -0.125000 -0.250000    0.00195312  21 t-inv F
 -0.125000  0.250000  0.375000    0.00195312  21 t-inv F
  0.125000 -0.250000 -0.375000    0.00195312  21 t-inv F
 -0.375000 -0.250000  0.125000    0.00195312  21 t-inv F
  0.375000  0.250000 -0.125000    0.00195312  21 t-inv F
 -0.125000 -0.375000  0.250000    0.00195312  21 t-inv F
  0.125000  0.375000 -0.250000    0.00195312  21 t-inv F
 -0.250000 -0.125000  0.375000    0.00195312  21 t-inv F
  0.250000  0.125000 -0.375000    0.00195312  21 t-inv F
  0.250000 -0.375000  0.125000    0.00195312  21 t-inv F
 -0.250000  0.375000 -0.125000    0.00195312  21 t-inv F
  0.375000 -0.125000  0.250000    0.00195312  21 t-inv F
 -0.375000  0.125000 -0.250000    0.00195312  21 t-inv F
  0.125000 -0.250000  0.375000    0.00195312  21 t-inv F
 -0.125000  0.250000 -0.375000    0.00195312  21 t-inv F
  0.125000 -0.375000 -0.250000    0.00195312  21 t-inv F
 -0.125000  0.375000  0.250000    0.00195312  21 t-inv F
  0.250000 -0.125000 -0.375000    0.00195312  21 t-inv F
 -0.250000  0.125000  0.375000    0.00195312  21 t-inv F
  0.375000 -0.250000 -0.125000    0.00195312  21 t-inv F
 -0.375000  0.250000  0.125000    0.00195312  21 t-inv F
  0.125000  0.250000 -0.375000    0.00195312  21 t-inv F
 -0.125000 -0.250000  0.375000    0.00195312  21 t-inv F
  0.250000  0.375000 -0.125000    0.00195312  21 t-inv F
 -0.250000 -0.375000  0.125000    0.00195312  21 t-inv F
  0.375000  0.125000 -0.250000    0.00195312  21 t-inv F
 -0.375000 -0.125000  0.250000    0.00195312  21 t-inv F
 -0.250000  0.125000 -0.375000    0.00195312  21 t-inv F
  0.250000 -0.125000  0.375000    0.00195312  21 t-inv F
 -0.375000  0.250000 -0.125000    0.00195312  21 t-inv F
  0.375000 -0.250000  0.125000    0.00195312  21 t-inv F
 -0.125000  0.375000 -0.250000    0.00195312  21 t-inv F
  0.125000 -0.375000  0.250000    0.00195312  21 t-inv F
 -0.375000 -0.125000 -0.250000    0.00195312  21 t-inv F
  0.375000  0.125000  0.250000    0.00195312  21 t-inv F
 -0.250000 -0.375000 -0.125000    0.00195312  21 t-inv F
  0.250000  0.375000  0.125000    0.00195312  21 t-inv F
 -0.125000 -0.250000 -0.375000    0.00195312  21 t-inv F
  0.125000  0.250000  0.375000    0.00195312  21 t-inv F
 -0.500000 -0.250000 -0.125000    0.00195312  22 t-inv F
  0.125000  0.500000  0.250000    0.00195312  22 t-inv F
 -0.125000 -0.500000 -0.250000    0.00195312  22 t-inv F
  0.250000  0.125000  0.500000    0.00195312  22 t-inv F
 -0.250000 -0.125000 -0.500000    0.00195312  22 t-inv F
 -0.250000  0.500000  0.125000    0.00195312  22 t-inv F
  0.250000 -0.500000 -0.125000    0.00195312  22 t-inv F
 -0.500000  0.125000  0.250000    0.00195312  22 t-inv F
  0.500000 -0.125000 -0.250000    0.00195312  22 t-inv F
 -0.125000  0.250000  0.500000    0.00195312  22 t-inv F
  0.125000 -0.250000 -0.500000    0.00195312  22 t-inv F
 -0.500000 -0.250000  0.125000    0.00195312  22 t-inv F
  0.500000  0.250000 -0.125000    0.00195312  22 t-inv F
 -0.125000 -0.500000  0.250000    0.00195312  22 t-inv F
  0.125000  0.500000 -0.250000    0.00195312  22 t-inv F
  0.250000 -0.500000  0.125000    0.00195312  22 t-inv F
 -0.250000  0.500000 -0.125000    0.00195312  22 t-inv F
  0.500000 -0.125000  0.250000    0.00195312  22 t-inv F
 -0.500000  0.125000 -0.250000    0.00195312  22 t-inv F
  0.250000 -0.125000 -0.500000    0.00195312  22 t-inv F
 -0.250000  0.125000  0.500000    0.00195312  22 t-inv F
  0.125000  0.250000 -0.500000    0.00195312  22 t-inv F
 -0.125000 -0.250000  0.500000    0.00195312  22 t-inv F
 -0.375000 -0.375000 -0.125000    0.00195312  23 t-inv F
  0.125000  0.375000  0.375000    0.00195312  23 t-inv F
 -0.125000 -0.375000 -0.375000    0.00195312  23 t-inv F
  0.375000  0.125000  0.375000    0.00195312  23 t-inv F
 -0.375000 -0.125000 -0.375000    0.00195312  23 t-inv F
 -0.375000  0.375000  0.125000    0.00195312  23 t-inv F
  0.375000 -0.375000 -0.125000    0.00195312  23 t-inv F
 -0.375000  0.125000  0.375000    0.00195312  23 t-inv F
  0.375000 -0.125000 -0.375000    0.00195312  23 t-inv F
 -0.125000  0.375000  0.375000    0.00195312  23 t-inv F
  0.125000 -0.375000 -0.375000    0.00195312  23 t-inv F
 -0.375000 -0.375000  0.125000    0.00195312  23 t-inv F
  0.375000  0.375000 -0.125000    0.00195312  23 t-inv F
 -0.125000 -0.375000  0.375000    0.00195312  23 t-inv F
  0.125000  0.375000 -0.375000    0.00195312  23 t-inv F
 -0.375000 -0.125000  0.375000    0.00195312  23 t-inv F
  0.375000  0.125000 -0.375000    0.00195312  23 t-inv F
  0.375000 -0.375000  0.125000    0.00195312  23 t-inv F
 -0.375000  0.375000 -0.125000    0.00195312  23 t-inv F
  0.375000 -0.125000  0.375000    0.00195312  23 t-inv F
 -0.375000  0.125000 -0.375000    0.00195312  23 t-inv F
  0.125000 -0.375000  0.375000    0.00195312  23 t-inv F
 -0.125000  0.375000 -0.375000    0.00195312  23 t-inv F
 -0.500000 -0.375000 -0.125000    0.00195312  24 t-inv F
  0.125000  0.500000  0.375000    0.00195312  24 t-inv F
 -0.125000 -0.500000 -0.375000    0.00195312  24 t-inv F
  0.375000  0.125000  0.500000    0.00195312  24 t-inv F
 -0.375000 -0.125000 -0.500000    0.00195312  24 t-inv F
 -0.375000  0.500000  0.125000    0.00195312  24 t-inv F
  0.375000 -0.500000 -0.125000    0.00195312  24 t-inv F
 -0.500000  0.125000  0.375000    0.00195312  24 t-inv F
  0.500000 -0.125000 -0.375000    0.00195312  24 t-inv F
 -0.125000  0.375000  0.500000    0.00195312  24 t-inv F
  0.125000 -0.375000 -0.500000    0.00195312  24 t-inv F
 -0.500000 -0.375000  0.125000    0.00195312  24 t-inv F
  0.500000  0.375000 -0.125000    0.00195312  24 t-inv F
 -0.125000 -0.500000  0.375000    0.00195312  24 t-inv F
  0.125000  0.500000 -0.375000    0.00195312  24 t-inv F
  0.375000 -0.500000  0.125000    0.00195312  24 t-inv F
 -0.375000  0.500000 -0.125000    0.00195312  24 t-inv F
  0.500000 -0.125000  0.375000    0.00195312  24 t-inv F
 -0.500000  0.125000 -0.375000    0.00195312  24 t-inv F
  0.375000 -0.125000 -0.500000    0.00195312  24 t-inv F
 -0.375000  0.125000  0.500000    0.00195312  24 t-inv F
  0.125000  0.375000 -0.500000    0.00195312  24 t-inv F
 -0.125000 -0.375000  0.500000    0.00195312  24 t-inv F
 -0.500000 -0.500000 -0.125000    0.00195312  25 t-inv F
  0.125000  0.500000  0.500000    0.00195312  25 t-inv F
 -0.125000 -0.500000 -0.500000    0.00195312  25 t-inv F
  0.500000  0.125000  0.500000    0.00195312  25 t-inv F
 -0.500000 -0.125000 -0.500000    0.00195312  25 t-inv F
 -0.250000 -0.250000 -0.250000    0.00195312  26 t-inv F
 -0.250000  0.250000  0.250000    0.00195312  26 t-inv F
  0.250000 -0.250000 -0.250000    0.00195312  26 t-inv F
 -0.250000 -0.250000  0.250000    0.00195312  26 t-inv F
  0.250000  0.250000 -0.250000    0.00195312  26 t-inv F
  0.250000 -0.250000  0.250000    0.00195312  26 t-inv F
 -0.250000  0.250000 -0.250000    0.00195312  26 t-inv F
 -0.375000 -0.250000 -0.250000    0.00195312  27 t-inv F
  0.250000  0.375000  0.250000    0.00195312  27 t-inv F
 -0.250000 -0.375000 -0.250000    0.00195312  27 t-inv F
  0.250000  0.250000  0.375000    0.00195312  27 t-inv F
 -0.250000 -0.250000 -0.375000    0.00195312  27 t-inv F
 -0.250000  0.375000  0.250000    0.00195312  27 t-inv F
  0.250000 -0.375000 -0.250000    0.00195312  27 t-inv F
 -0.375000  0.250000  0.250000    0.00195312  27 t-inv F
  0.375000 -0.250000 -0.250000    0.00195312  27 t-inv F
 -0.250000  0.250000  0.375000    0.00195312  27 t-inv F
  0.250000 -0.250000 -0.375000    0.00195312  27 t-inv F
 -0.375000 -0.250000  0.250000    0.00195312  27 t-inv F
  0.375000  0.250000 -0.250000    0.00195312  27 t-inv F
 -0.250000 -0.375000  0.250000    0.00195312  27 t-inv F
  0.250000  0.375000 -0.250000    0.00195312  27 t-inv F
 -0.250000 -0.250000  0.375000    0.00195312  27 t-inv F
  0.250000  0.250000 -0.375000    0.00195312  27 t-inv F
  0.250000 -0.375000  0.250000    0.00195312  27 t-inv F
 -0.250000  0.375000 -0.250000    0.00195312  27 t-inv F
  0.375000 -0.250000  0.250000    0.00195312  27 t-inv F
 -0.375000  0.250000 -0.250000    0.00195312  27 t-inv F
  0.250000 -0.250000  0.375000    0.00195312  27 t-inv F
 -0.250000  0.250000 -0.375000    0.00195312  27 t-inv F
 -0.500000 -0.250000 -0.250000    0.00195312  28 t-inv F
  0.250000  0.500000  0.250000    0.00195312  28 t-inv F
 -0.250000 -0.500000 -0.250000    0.00195312  28 t-inv F
  0.250000  0.250000  0.500000    0.00195312  28 t-inv F
 -0.250000 -0.250000 -0.500000    0.00195312  28 t-inv F
 -0.250000  0.500000  0.250000    0.00195312  28 t-inv F
  0.250000 -0.500000 -0.250000    0.00195312  28 t-inv F
 -0.250000  0.250000  0.500000    0.00195312  28 t-inv F
  0.250000 -0.250000 -0.500000    0.00195312  28 t-inv F
 -0.500000 -0.250000  0.250000    0.00195312  28 t-inv F
  0.500000  0.250000 -0.250000    0.00195312  28 t-inv F
 -0.375000 -0.375000 -0.250000    0.00195312  29 t-inv F
  0.250000  0.375000  0.375000    0.00195312  29 t-inv F
 -0.250000 -0.375000 -0.375000    0.00195312  29 t-inv F
  0.375000  0.250000  0.375000    0.00195312  29 t-inv F
 -0.375000 -0.250000 -0.375000    0.00195312  29 t-inv F
 -0.375000  0.375000  0.250000    0.00195312  29 t-inv F
  0.375000 -0.375000 -0.250000    0.00195312  29 t-inv F
 -0.375000  0.250000  0.375000    0.00195312  29 t-inv F
  0.375000 -0.250000 -0.375000    0.00195312  29 t-inv F
 -0.250000  0.375000  0.375000    0.00195312  29 t-inv F
  0.250000 -0.375000 -0.375000    0.00195312  29 t-inv F
 -0.375000 -0.375000  0.250000    0.00195312  29 t-inv F
  0.375000  0.375000 -0.250000    0.00195312  29 t-inv F
 -0.250000 -0.375000  0.375000    0.00195312  29 t-inv F
  0.250000  0.375000 -0.375000    0.00195312  29 t-inv F
 -0.375000 -0.250000  0.375000    0.00195312  29 t-inv F
  0.375000  0.250000 -0.375000    0.00195312  29 t-inv F
  0.375000 -0.375000  0.250000    0.00195312  29 t-inv F
 -0.375000  0.375000 -0.250000    0.00195312  29 t-inv F
  0.375000 -0.250000  0.375000    0.00195312  29 t-inv F
 -0.375000  0.250000 -0.375000    0.00195312  29 t-inv F
  0.250000 -0.375000  0.375000    0.00195312  29 t-inv F
 -0.250000  0.375000 -0.375000    0.00195312  29 t-inv F
 -0.500000 -0.375000 -0.250000    0.00195312  30 t-inv F
  0.250000  0.500000  0.375000    0.00195312  30 t-inv F
 -0.250000 -0.500000 -0.375000    0.00195312  30 t-inv F
  0.375000  0.250000  0.500000    0.00195312  30 t-inv F
 -0.375000 -0.250000 -0.500000    0.00195312  30 t-inv F
 -0.375000  0.500000  0.250000    0.00195312  30 t-inv F
  0.375000 -0.500000 -0.250000    0.00195312  30 t-inv F
 -0.500000  0.250000  0.375000    0.00195312  30 t-inv F
  0.500000 -0.250000 -0.375000    0.00195312  30 t-inv F
 -0.250000  0.375000  0.500000    0.00195312  30 t-inv F
  0.250000 -0.375000 -0.500000    0.00195312  30 t-inv F
 -0.500000 -0.375000  0.250000    0.00195312  30 t-inv F
  0.500000  0.375000 -0.250000    0.00195312  30 t-inv F
 -0.250000 -0.500000  0.375000    0.00195312  30 t-inv F
  0.250000  0.500000 -0.375000    0.00195312  30 t-inv F
  0.375000 -0.500000  0.250000    0.00195312  30 t-inv F
 -0.375000  0.500000 -0.250000    0.00195312  30 t-inv F
  0.500000 -0.250000  0.375000    0.00195312  30 t-inv F
 -0.500000  0.250000 -0.375000    0.00195312  30 t-inv F
  0.375000 -0.250000 -0.500000    0.00195312  30 t-inv F
 -0.375000  0.250000  0.500000    0.00195312  30 t-inv F
  0.250000  0.375000 -0.500000    0.00195312  30 t-inv F
 -0.250000 -0.375000  0.500000    0.00195312  30 t-inv F
 -0.500000 -0.500000 -0.250000    0.00195312  31 t-inv F
  0.250000  0.500000  0.500000    0.00195312  31 t-inv F
 -0.250000 -0.500000 -0.500000    0.00195312  31 t-inv F
  0.500000  0.250000  0.500000    0.00195312  31 t-inv F
 -0.500000 -0.250000 -0.500000    0.00195312  31 t-inv F
 -0.375000 -0.375000 -0.375000    0.00195312  32 t-inv F
 -0.375000  0.375000  0.375000    0.00195312  32 t-inv F
  0.375000 -0.375000 -0.375000    0.00195312  32 t-inv F
 -0.375000 -0.375000  0.375000    0.00195312  32 t-inv F
  0.375000  0.375000 -0.375000    0.00195312  32 t-inv F
  0.375000 -0.375000  0.375000    0.00195312  32 t-inv F
 -0.375000  0.375000 -0.375000    0.00195312  32 t-inv F
 -0.500000 -0.375000 -0.375000    0.00195312  33 t-inv F
  0.375000  0.500000  0.375000    0.00195312  33 t-inv F
 -0.375000 -0.500000 -0.375000    0.00195312  33 t-inv F
  0.375000  0.375000  0.500000    0.00195312  33 t-inv F
 -0.375000 -0.375000 -0.500000    0.00195312  33 t-inv F
 -0.375000  0.500000  0.375000    0.00195312  33 t-inv F
  0.375000 -0.500000 -0.375000    0.00195312  33 t-inv F
 -0.375000  0.375000  0.500000    0.00195312  33 t-inv F
  0.375000 -0.375000 -0.500000    0.00195312  33 t-inv F
 -0.500000 -0.375000  0.375000    0.00195312  33 t-inv F
  0.500000  0.375000 -0.375000    0.00195312  33 t-inv F
 -0.500000 -0.500000 -0.375000    0.00195312  34 t-inv F
  0.375000  0.500000  0.500000    0.00195312  34 t-inv F
 -0.375000 -0.500000 -0.500000    0.00195312  34 t-inv F
  0.500000  0.375000  0.500000    0.00195312  34 t-inv F
 -0.500000 -0.375000 -0.500000    0.00195312  34 t-inv F


--------------------------------------------------------------------------------------------------------




 Dimension of arrays:
   k-points           NKPTS =     35   k-points in BZ     NKDIM =    512   number of bands    NBANDS=     48
   number of dos      NEDOS =    301   number of ions     NIONS =      8
   non local maximal  LDIM  =      5   non local SUM 2l+1 LMDIM =     13
   total plane-waves  NPLWV =  21952
   max r-space proj   IRMAX =      1   max aug-charges    IRDMAX=   6146
   dimension x,y,z NGX =    28 NGY =   28 NGZ =   28
   dimension x,y,z NGXF=    56 NGYF=   56 NGZF=   56
   support grid    NGXF=    56 NGYF=   56 NGZF=   56
   ions per type =               4   4
   NGX,Y,Z   is equivalent  to a cutoff of  11.15, 11.15, 11.15 a.u.
   NGXF,Y,Z  is equivalent  to a cutoff of  22.30, 22.30, 22.30 a.u.

 SYSTEM =  MgO-rocksalt                            
 POSCAR =  Mg4 O4                                  

 Startparameter for this run:
   NWRITE =      2    write-flag & timer
   PREC   = normal    normal or accurate (medium, high low for compatibility)
   ISTART =      0    job   : 0-new  1-cont  2-samecut
   ICHARG =      2    charge: 1-file 2-atom 10-const
   ISPIN  =      1    spin polarized calculation?
   LNONCOLLINEAR =      F non collinear calculations
   LSORBIT =      F    spin-orbit coupling
   INIWAV =      1    electr: 0-lowe 1-rand  2-diag
   LASPH  =      T    aspherical Exc in radial PAW
 Electronic Relaxation 1
   ENCUT  =  600.0 eV  44.10 Ry    6.64 a.u.   8.34  8.34  8.34*2*pi/ulx,y,z
   ENINI  =  600.0     initial cutoff
   ENAUG  =  758.8 eV  augmentation charge cutoff
   NELM   =    200;   NELMIN=  8; NELMDL= -5     # of ELM steps 
   EDIFF  = 0.1E-05   stopping-criterion for ELM
   LREAL  =      F    real-space projection
   NLSPLINE    = F    spline interpolate recip. space projectors
   LCOMPAT=      F    compatible to vasp.4.4
   GGA_COMPAT  = T    GGA compatible to vasp.4.4-vasp.4.6
   LMAXPAW     = -100 max onsite density
   LMAXMIX     =    2 max onsite mixed and CHGCAR
   VOSKOWN=      0    Vosko Wilk Nusair interpolation
   ROPT   =    0.00000   0.00000
 Ionic relaxation
   EDIFFG = -.5E-02   stopping-criterion for IOM
   NSW    =   1000    number of steps for IOM
   NBLOCK =      1;   KBLOCK =   1000    inner block; outer block 
   IBRION =      2    ionic relax: 0-MD 1-quasi-New 2-CG
   NFREE  =      1    steps in history (QN), initial steepest desc. (CG)
   ISIF   =      3    stress and relaxation
   IWAVPR =     11    prediction:  0-non 1-charg 2-wave 3-comb
   ISYM   =      2    0-nonsym 1-usesym 2-fastsym
   LCORR  =      T    Harris-Foulkes like correction to forces

   POTIM  = 0.5000    time-step for ionic-motion
   TEIN   =    0.0    initial temperature
   TEBEG  =    0.0;   TEEND  =   0.0 temperature during run
   SMASS  =  -3.00    Nose mass-parameter (am)
   estimated Nose-frequenzy (Omega)   =  0.10E-29 period in steps = 0.13E+47 mass=  -0.398E-27a.u.
   SCALEE = 1.0000    scale energy and forces
   NPACO  =    256;   APACO  = 10.0  distance and # of slots for P.C.
   PSTRESS=    0.0 pullay stress

  Mass of Ions in am
   POMASS =  24.30 16.00
  Ionic Valenz
   ZVAL   =   8.00  6.00
  Atomic Wigner-Seitz radii
   RWIGS  =  -1.00 -1.00
  virtual crystal weights 
   VCA    =   1.00  1.00
   NELECT =      56.0000    total number of electrons
   NUPDOWN=      -1.0000    fix difference up-down

 DOS related values:
   EMIN   =  10.00;   EMAX   =-10.00  energy-range for DOS
   EFERMI =   0.00
   ISMEAR =     0;   SIGMA  =   0.05  broadening in eV -4-tet -1-fermi 0-gaus

 Electronic relaxation 2 (details)
   IALGO  =     58    algorithm
   LDIAG  =      T    sub-space diagonalisation (order eigenvalues)
   LSUBROT=      F    optimize rotation matrix (better conditioning)
   TURBO    =      0    0=normal 1=particle mesh
   IRESTART =      0    0=no restart 2=restart with 2 vectors
   NREBOOT  =      0    no. of reboots
   NMIN     =      0    reboot dimension
   EREF     =   0.00    reference energy to select bands
   IMIX   =      4    mixing-type and parameters
     AMIX     =   0.40;   BMIX     =  1.00
     AMIX_MAG =   1.60;   BMIX_MAG =  1.00
     AMIN     =   0.10
     WC   =   100.;   INIMIX=   1;  MIXPRE=   1;  MAXMIX= -45

 Intra band minimization:
   WEIMIN = 0.0010     energy-eigenvalue tresh-hold
   EBREAK =  0.52E-08  absolut break condition
   DEPER  =   0.30     relativ break condition  

   TIME   =   0.40     timestep for ELM

  volume/ion in A,a.u.               =       9.09        61.37
  Fermi-wavevector in a.u.,A,eV,Ry     =   1.500355  2.835259 30.627581  2.251064
  Thomas-Fermi vector in A             =   2.611866

 Write flags
   LWAVE        =      F    write WAVECAR
   LDOWNSAMPLE  =      F    k-point downsampling of WAVECAR
   LCHARG       =      F    write CHGCAR
   LVTOT        =      F    write LOCPOT, total local potential
   LVHAR        =      F    write LOCPOT, Hartree potential only
   LELF         =      F    write electronic localiz. function (ELF)
   LORBIT       =      0    0 simple, 1 ext, 2 COOP (PROOUT), +10 PAW based schemes


 Dipole corrections
   LMONO  =      F    monopole corrections only (constant potential shift)
   LDIPOL =      F    correct potential (dipole corrections)
   IDIPOL =      0    1-x, 2-y, 3-z, 4-all directions 
   EPSILON=  1.0000000 bulk dielectric constant

 Exchange correlation treatment:
   GGA     =    PE    GGA type
   LEXCH   =     8    internal setting for exchange type
   LIBXC   =     F    Libxc                    
   VOSKOWN =     0    Vosko Wilk Nusair interpolation
   EXXOEP  =     0    0=HF, 1=EXX-LHF (local Hartree Fock) 2=EXX OEP
   LHFCALC =     T    Hartree Fock is set to
   LSYMGRAD=     F    symmetrize gradient (conserves proper symmetry)
   PRECFOCK=normal    Normal, Fast or Accurate (Low or Medium for compatibility)
   LRHFCALC=     F    long range Hartree Fock
   LRSCOR  =     F    long range correlation only (use DFT for short range part)
   LTHOMAS =     F    Thomas Fermi screening in HF
   LMODELHF=     F    short range full HF, long range fraction AEXX
   LFOCKACE=     T    use Adeptively-Compressed-Exchange operator
   ENCUT4O =  -1.0   cutoff for four orbital integrals eV
   LMAXFOCK=     4    L truncation for augmentation on plane wave grid
   LMAXFOCKAE=  -1    L truncation for all-electron charge restoration on plane wave grid
   NMAXFOCKAE=   1    number of basis functions for all-electron charge restoration
   LFOCKAEDFT=     F  apply the AE augmentation even for DFT
   NKREDX  =     1    reduce k-point grid by
   NKREDY  =     1    reduce k-point grid by
   NKREDZ  =     1    reduce k-point grid by
   SHIFTRED=     F    shift reduced grid of Gamma
   HFKIDENT=     F    idential grid for each k-point
   ODDONLY =     F    use only odd q-grid points
   EVENONLY=     F    use only even q-grid points
   HFALPHA =   -1.0000 decay constant for conv. correction
   MCALPHA =    0.0000 extent of test-charge in conv. correction in multipole expansion
   AEXX    =    0.2500 exact exchange contribution
   HFSCREEN=    0.0000 screening length (either q_TF or 0.3 A-1)
   HFSCREENC=   0.0000 screening length for correlation (either q_TF or 0.3 A-1)
   HFRCUT  =    0.0000 spherical cutoff for potential kernel
   ALDAX   =    0.7500 LDA exchange part
   AGGAX   =    0.7500 GGA exchange part
   ALDAC   =    1.0000 LDA correlation
   AGGAC   =    1.0000 GGA correlation
   ENCUTFOCK=  -1.0 apply spherical cutoff to Coloumb kernel
   NBANDSGWLOW=     1    first orbital included in HF term
   NBLOCK_FOCK=    64    blocking factor in FOCK_ACC

 Linear response parameters
   LEPSILON=     F    determine dielectric tensor
   LRPA    =     F    only Hartree local field effects (RPA)
   LNABLA  =     F    use nabla operator in PAW spheres
   LVEL    =     F    velocity operator in full k-point grid
   CSHIFT  =0.1000    complex shift for real part using Kramers Kronig
   OMEGAMAX=  -1.0    maximum frequency
   DEG_THRESHOLD= 0.2000000E-02 threshold for treating states as degnerate
   RTIME   =   -0.100 relaxation time in fs
  (WPLASMAI=    0.000 imaginary part of plasma frequency in eV, 0.658/RTIME)
   DFIELD  = 0.0000000 0.0000000 0.0000000 field for delta impulse in time

  Optional k-point grid parameters
   LKPOINTS_OPT  =     F    use optional k-point grid
   KPOINTS_OPT_MODE=     1    mode for optional k-point grid

 Orbital magnetization related:
   ORBITALMAG=     F  switch on orbital magnetization
   LCHIMAG   =     F  perturbation theory with respect to B field
   DQ        =  0.001000  dq finite difference perturbation B field
   LLRAUG    =     F  two centre corrections for induced B field



--------------------------------------------------------------------------------------------------------


 conjugate gradient relaxation of ions
 charge density and potential will be updated during run
 non-spin polarized calculation
 Conjugate gradient for all bands (Freysoldt, et al. PRB 79, 241103 (2009))
 preconditioned conjugated gradient                                        
 perform sub-space diagonalisation
    before iterative eigenvector-optimisation
 modified Broyden-mixing scheme, WC =      100.0
 initial mixing is a Kerker type mixing with AMIX =  0.4000 and BMIX =      1.0000
 Hartree-type preconditioning will be used
 using additional bands           20
 reciprocal scheme for non local part
 use partial core corrections
 no Harris-corrections to forces 
 use gradient corrections 
 use of overlap-Matrix (Vanderbilt PP)
 Gauss-broadening in eV      SIGMA  =   0.05


--------------------------------------------------------------------------------------------------------


  energy-cutoff  :      600.00
  volume of cell :       72.75
      direct lattice vectors                 reciprocal lattice vectors
     4.174555913 -0.000000000 -0.000000000     0.239546438  0.000000000 -0.000000000
    -0.000000000  4.174555913 -0.000000000     0.000000000  0.239546438 -0.000000000
     0.000000000  0.000000000  4.174555913     0.000000000  0.000000000  0.239546438

  length of vectors
     4.174555913  4.174555913  4.174555913     0.239546438  0.239546438  0.239546438



 k-points in units of 2pi/SCALE and weight: pymatgen v2020.8.13 with grid density = 
   0.00000000  0.00000000  0.00000000       0.002
   0.02994330  0.00000000  0.00000000       0.012
   0.05988661  0.00000000  0.00000000       0.012
   0.08982991  0.00000000  0.00000000       0.012
   0.11977322  0.00000000  0.00000000       0.006
   0.02994330  0.02994330  0.00000000       0.023
   0.05988661  0.02994330  0.00000000       0.047
   0.08982991  0.02994330  0.00000000       0.047
   0.11977322  0.02994330  0.00000000       0.023
   0.05988661  0.05988661  0.00000000       0.023
   0.08982991  0.05988661  0.00000000       0.047
   0.11977322  0.05988661  0.00000000       0.023
   0.08982991  0.08982991  0.00000000       0.023
   0.11977322  0.08982991  0.00000000       0.023
   0.11977322  0.11977322  0.00000000       0.006
   0.02994330  0.02994330  0.02994330       0.016
   0.05988661  0.02994330  0.02994330       0.047
   0.08982991  0.02994330  0.02994330       0.047
   0.11977322  0.02994330  0.02994330       0.023
   0.05988661  0.05988661  0.02994330       0.047
   0.08982991  0.05988661  0.02994330       0.094
   0.11977322  0.05988661  0.02994330       0.047
   0.08982991  0.08982991  0.02994330       0.047
   0.11977322  0.08982991  0.02994330       0.047
   0.11977322  0.11977322  0.02994330       0.012
   0.05988661  0.05988661  0.05988661       0.016
   0.08982991  0.05988661  0.05988661       0.047
   0.11977322  0.05988661  0.05988661       0.023
   0.08982991  0.08982991  0.05988661       0.047
   0.11977322  0.08982991  0.05988661       0.047
   0.11977322  0.11977322  0.05988661       0.012
   0.08982991  0.08982991  0.08982991       0.016
   0.11977322  0.08982991  0.08982991       0.023
   0.11977322  0.11977322  0.08982991       0.012
   0.11977322  0.11977322  0.11977322       0.002

 k-points in reciprocal lattice and weights: pymatgen v2020.8.13 with grid density = 
   0.00000000  0.00000000  0.00000000       0.002
   0.12500000  0.00000000  0.00000000       0.012
   0.25000000  0.00000000  0.00000000       0.012
   0.37500000  0.00000000  0.00000000       0.012
   0.50000000  0.00000000  0.00000000       0.006
   0.12500000  0.12500000  0.00000000       0.023
   0.25000000  0.12500000  0.00000000       0.047
   0.37500000  0.12500000  0.00000000       0.047
   0.50000000  0.12500000  0.00000000       0.023
   0.25000000  0.25000000  0.00000000       0.023
   0.37500000  0.25000000  0.00000000       0.047
   0.50000000  0.25000000  0.00000000       0.023
   0.37500000  0.37500000  0.00000000       0.023
   0.50000000  0.37500000  0.00000000       0.023
   0.50000000  0.50000000  0.00000000       0.006
   0.12500000  0.12500000  0.12500000       0.016
   0.25000000  0.12500000  0.12500000       0.047
   0.37500000  0.12500000  0.12500000       0.047
   0.50000000  0.12500000  0.12500000       0.023
   0.25000000  0.25000000  0.12500000       0.047
   0.37500000  0.25000000  0.12500000       0.094
   0.50000000  0.25000000  0.12500000       0.047
   0.37500000  0.37500000  0.12500000       0.047
   0.50000000  0.37500000  0.12500000       0.047
   0.50000000  0.50000000  0.12500000       0.012
   0.25000000  0.25000000  0.25000000       0.016
   0.37500000  0.25000000  0.25000000       0.047
   0.50000000  0.25000000  0.25000000       0.023
   0.37500000  0.37500000  0.25000000       0.047
   0.50000000  0.37500000  0.25000000       0.047
   0.50000000  0.50000000  0.25000000       0.012
   0.37500000  0.37500000  0.37500000       0.016
   0.50000000  0.37500000  0.37500000       0.023
   0.50000000  0.50000000  0.37500000       0.012
   0.50000000  0.50000000  0.50000000       0.002

 position of ions in fractional coordinates (direct lattice) 
   0.00000000  0.00000000  0.00000000
   0.00000000  0.50000000  0.50000000
   0.50000000  0.00000000  0.50000000
   0.50000000  0.50000000  0.00000000
   0.50000000  0.00000000  0.00000000
   0.50000000  0.50000000  0.50000000
   0.00000000  0.00000000  0.50000000
   0.00000000  0.50000000  0.00000000

 position of ions in cartesian coordinates  (Angst):
   0.00000000  0.00000000  0.00000000
   0.00000000  2.08727796  2.08727796
   2.08727796  0.00000000  2.08727796
   2.08727796  2.08727796  0.00000000
   2.08727796  0.00000000  0.00000000
   2.08727796  2.08727796  2.08727796
   0.00000000  0.00000000  2.08727796
   0.00000000  2.08727796  0.00000000



--------------------------------------------------------------------------------------------------------


 k-point   1 :   0.0000 0.0000 0.0000  plane waves:    2469
 k-point   2 :   0.1250 0.0000 0.0000  plane waves:    2465
 k-point   3 :   0.2500 0.0000 0.0000  plane waves:    2425
 k-point   4 :   0.3750 0.0000 0.0000  plane waves:    2424
 k-point   5 :   0.5000 0.0000 0.0000  plane waves:    2416
 k-point   6 :   0.1250 0.1250 0.0000  plane waves:    2424
 k-point   7 :   0.2500 0.1250 0.0000  plane waves:    2428
 k-point   8 :   0.3750 0.1250 0.0000  plane waves:    2426
 k-point   9 :   0.5000 0.1250 0.0000  plane waves:    2436
 k-point  10 :   0.2500 0.2500 0.0000  plane waves:    2430
 k-point  11 :   0.3750 0.2500 0.0000  plane waves:    2433
 k-point  12 :   0.5000 0.2500 0.0000  plane waves:    2444
 k-point  13 :   0.3750 0.3750 0.0000  plane waves:    2422
 k-point  14 :   0.5000 0.3750 0.0000  plane waves:    2430
 k-point  15 :   0.5000 0.5000 0.0000  plane waves:    2464
 k-point  16 :   0.1250 0.1250 0.1250  plane waves:    2424
 k-point  17 :   0.2500 0.1250 0.1250  plane waves:    2421
 k-point  18 :   0.3750 0.1250 0.1250  plane waves:    2428
 k-point  19 :   0.5000 0.1250 0.1250  plane waves:    2432
 k-point  20 :   0.2500 0.2500 0.1250  plane waves:    2421
 k-point  21 :   0.3750 0.2500 0.1250  plane waves:    2441
 k-point  22 :   0.5000 0.2500 0.1250  plane waves:    2432
 k-point  23 :   0.3750 0.3750 0.1250  plane waves:    2420
 k-point  24 :   0.5000 0.3750 0.1250  plane waves:    2428
 k-point  25 :   0.5000 0.5000 0.1250  plane waves:    2432
 k-point  26 :   0.2500 0.2500 0.2500  plane waves:    2425
 k-point  27 :   0.3750 0.2500 0.2500  plane waves:    2438
 k-point  28 :   0.5000 0.2500 0.2500  plane waves:    2422
 k-point  29 :   0.3750 0.3750 0.2500  plane waves:    2416
 k-point  30 :   0.5000 0.3750 0.2500  plane waves:    2426
 k-point  31 :   0.5000 0.5000 0.2500  plane waves:    2408
 k-point  32 :   0.3750 0.3750 0.3750  plane waves:    2413
 k-point  33 :   0.5000 0.3750 0.3750  plane waves:    2406
 k-point  34 :   0.5000 0.5000 0.3750  plane waves:    2416
 k-point  35 :   0.5000 0.5000 0.5000  plane waves:    2440

 maximum and minimum number of plane-waves per node :       646      574

 maximum number of plane-waves:      2469
 maximum index in each direction: 
   IXMAX=    8   IYMAX=    8   IZMAX=    8
   IXMIN=   -8   IYMIN=   -8   IZMIN=   -8


 parallel 3D FFT for wavefunctions:
    minimum data exchange during FFTs selected (reduces bandwidth)
 parallel 3D FFT for charge:
    minimum data exchange during FFTs selected (reduces bandwidth)


 Radii for the augmentation spheres in the non-local exchange
 for species   1 augmentation radius   1.037 (default was   0.829)
       energy cutoff for augmentation   2400.0
 for species   2 augmentation radius   0.902 (default was   0.722)
       energy cutoff for augmentation   2400.0

 real space projection operators:
  total allocation   :       1326.56 KBytes
  max/ min on nodes  :        335.47        327.81

 Maximum index for augmentation-charges in exchange          348
  SETUP_FOCK is finished

 total amount of memory used by VASP MPI-rank0    37763. kBytes
=======================================================================

   base      :      30000. kBytes
   nonl-proj :       4978. kBytes
   fftplans  :        487. kBytes
   grid      :        402. kBytes
   one-center:         16. kBytes
   HF        :         67. kBytes
   nonlr-proj:        604. kBytes
   wavefun   :       1209. kBytes

     INWAV:  cpu time      0.0001: real time      0.0003
 Broyden mixing: mesh for mixing (old mesh)
   NGX = 17   NGY = 17   NGZ = 17
  (NGX  = 56   NGY  = 56   NGZ  = 56)
  gives a total of   4913 points

 initial charge density was supplied:
 charge density of overlapping atoms calculated
 number of electron      56.0000000 magnetization 
 keeping initial charge density in first step


--------------------------------------------------------------------------------------------------------


 Maximum index for augmentation-charges          385 (set IRDMAX)


--------------------------------------------------------------------------------------------------------


    FEWALD:  cpu time      0.0013: real time      0.0013


--------------------------------------- Iteration      1(   1)  ---------------------------------------


    POTLOK:  cpu time      0.0148: real time      0.0150
    SETDIJ:  cpu time      0.1152: real time      0.1152
    TRIAL :  cpu time      0.5166: real time      0.5167
    CORREC:  cpu time      0.0003: real time      0.0003
    --------------------------------------------
      LOOP:  cpu time      0.6474: real time      0.6499

 eigenvalue-minimisations  :  3360
 total energy-change (2. order) :-0.2606056E+03  (-0.4609469E+04)
 number of electron      56.0000000 magnetization 
 augmentation part       56.0000000 magnetization 

 Free energy of the ion-electron system (eV)
  ---------------------------------------------------
  alpha Z        PSCENC =       285.70511690
  Ewald energy   TEWEN  =     -3884.73830188
  -Hartree energ DENC   =     -1161.94138563
  -exchange      EXHF   =         0.00000000
  -V(xc)+E(xc)   XCENC  =       220.91524653
  PAW double counting   =      3981.86741742    -4824.33986574
  entropy T*S    EENTRO =        -0.00000000
  eigenvalues    EBANDS =      -819.78141204
  atomic energy  EATOM  =      5941.70755913
  ---------------------------------------------------
  free energy    TOTEN  =      -260.60562531 eV

  energy without entropy =     -260.60562531  energy(sigma->0) =     -260.60562531
  exchange ACFDT corr.  =         0.00000000  see jH, gK, PRB 81, 115126


--------------------------------------------------------------------------------------------------------




--------------------------------------- Iteration      1(   2)  ---------------------------------------


    TRIAL :  cpu time      1.0622: real time      1.0623
    CORREC:  cpu time      0.0003: real time      0.0003
    --------------------------------------------
      LOOP:  cpu time      1.0652: real time      1.0706

 eigenvalue-minimisations  :  4368
 total energy-change (2. order) :-0.2345632E+03  (-0.2342052E+03)
 number of electron      56.0000000 magnetization 
 augmentation part       56.0000000 magnetization 

 Free energy of the ion-electron system (eV)
  ---------------------------------------------------
  alpha Z        PSCENC =       285.70511690
  Ewald energy   TEWEN  =     -3884.73830188
  -Hartree energ DENC   =     -1161.94138563
  -exchange      EXHF   =         0.00000000
  -V(xc)+E(xc)   XCENC  =       220.91524653
  PAW double counting   =      3981.86741742    -4824.33986574
  entropy T*S    EENTRO =        -0.00000000
  eigenvalues    EBANDS =     -1054.34464899
  atomic energy  EATOM  =      5941.70755913
  ---------------------------------------------------
  free energy    TOTEN  =      -495.16886226 eV

  energy without entropy =     -495.16886226  energy(sigma->0) =     -495.16886226
  exchange ACFDT corr.  =         0.00000000  see jH, gK, PRB 81, 115126


--------------------------------------------------------------------------------------------------------




--------------------------------------- Iteration      1(   3)  ---------------------------------------


    TRIAL :  cpu time      0.9472: real time      0.9473
    CORREC:  cpu time      0.0003: real time      0.0003
    --------------------------------------------
      LOOP:  cpu time      0.9493: real time      0.9539

 eigenvalue-minimisations  :  3984
 total energy-change (2. order) :-0.2588921E+01  (-0.2588920E+01)
 number of electron      56.0000000 magnetization 
 augmentation part       56.0000000 magnetization 

 Free energy of the ion-electron system (eV)
  ---------------------------------------------------
  alpha Z        PSCENC =       285.70511690
  Ewald energy   TEWEN  =     -3884.73830188
  -Hartree energ DENC   =     -1161.94138563
  -exchange      EXHF   =         0.00000000
  -V(xc)+E(xc)   XCENC  =       220.91524653
  PAW double counting   =      3981.86741742    -4824.33986574
  entropy T*S    EENTRO =        -0.00000000
  eigenvalues    EBANDS =     -1056.93356959
  atomic energy  EATOM  =      5941.70755913
  ---------------------------------------------------
  free energy    TOTEN  =      -497.75778286 eV

  energy without entropy =     -497.75778286  energy(sigma->0) =     -497.75778286
  exchange ACFDT corr.  =         0.00000000  see jH, gK, PRB 81, 115126


--------------------------------------------------------------------------------------------------------




--------------------------------------- Iteration      1(   4)  ---------------------------------------


    TRIAL :  cpu time      1.8586: real time      1.8587
    CORREC:  cpu time      0.0003: real time      0.0003
    --------------------------------------------
      LOOP:  cpu time      1.8647: real time      1.8652

 eigenvalue-minimisations  :  5664
 total energy-change (2. order) :-0.4449525E-02  (-0.4449522E-02)
 number of electron      56.0000000 magnetization 
 augmentation part       56.0000000 magnetization 

 Free energy of the ion-electron system (eV)
  ---------------------------------------------------
  alpha Z        PSCENC =       285.70511690
  Ewald energy   TEWEN  =     -3884.73830188
  -Hartree energ DENC   =     -1161.94138563
  -exchange      EXHF   =         0.00000000
  -V(xc)+E(xc)   XCENC  =       220.91524653
  PAW double counting   =      3981.86741742    -4824.33986574
  entropy T*S    EENTRO =        -0.00000000
  eigenvalues    EBANDS =     -1056.93801912
  atomic energy  EATOM  =      5941.70755913
  ---------------------------------------------------
  free energy    TOTEN  =      -497.76223239 eV

  energy without entropy =     -497.76223239  energy(sigma->0) =     -497.76223239
  exchange ACFDT corr.  =         0.00000000  see jH, gK, PRB 81, 115126


--------------------------------------------------------------------------------------------------------




--------------------------------------- Iteration      1(   5)  ---------------------------------------


    POTLOK:  cpu time      0.0091: real time      0.0092
    SETDIJ:  cpu time      0.1123: real time      0.1123
    TRIAL :  cpu time    173.9236: real time    173.9356
    CORREC:  cpu time      0.0003: real time      0.0003
    CHARGE:  cpu time      0.0092: real time      0.0093
    --------------------------------------------
      LOOP:  cpu time    174.0574: real time    174.0734

 eigenvalue-minimisations  :  3552
 total energy-change (2. order) : 0.4309582E+03  (-0.4050171E+00)
 number of electron      55.9999988 magnetization 
 augmentation part       19.9599011 magnetization 

 Free energy of the ion-electron system (eV)
  ---------------------------------------------------
  alpha Z        PSCENC =       285.70511690
  Ewald energy   TEWEN  =     -3884.73830188
  -Hartree energ DENC   =     -1161.94138563
  -exchange      EXHF   =       209.05756889
  -V(xc)+E(xc)   XCENC  =       168.90316146
  PAW double counting   =      4030.18537770    -4480.62945776
  entropy T*S    EENTRO =        -0.00000000
  eigenvalues    EBANDS =     -1175.05363414
  atomic energy  EATOM  =      5941.70755913
  ---------------------------------------------------
  free energy    TOTEN  =       -66.80399534 eV

  energy without entropy =      -66.80399534  energy(sigma->0) =      -66.80399534
  exchange ACFDT corr.  =        -0.00000000  see jH, gK, PRB 81, 115126


--------------------------------------------------------------------------------------------------------




--------------------------------------- Iteration      1(   6)  ---------------------------------------


    POTLOK:  cpu time      0.0076: real time      0.0076
    SETDIJ:  cpu time      0.1125: real time      0.1125
    TRIAL :  cpu time    178.2467: real time    178.2595
    CORREC:  cpu time    180.6012: real time    180.6149
    CHARGE:  cpu time      0.0077: real time      0.0077
    --------------------------------------------
      LOOP:  cpu time    358.9773: real time    359.0102

 eigenvalue-minimisations  :     0
 total energy-change (2. order) : 0.2142927E+02  (-0.1172045E+02)
 number of electron      56.0000008 magnetization 
 augmentation part       19.5279326 magnetization 

 Free energy of the ion-electron system (eV)
  ---------------------------------------------------
  alpha Z        PSCENC =       285.70511690
  Ewald energy   TEWEN  =     -3884.73830188
  -Hartree energ DENC   =     -1332.06121921
  -exchange      EXHF   =       209.36163139
  -V(xc)+E(xc)   XCENC  =       180.26778684
  PAW double counting   =      4668.17687340    -5114.91348258
  entropy T*S    EENTRO =        -0.00000000
  eigenvalues    EBANDS =      -998.88069339
  atomic energy  EATOM  =      5941.70755913
  ---------------------------------------------------
  free energy    TOTEN  =       -45.37472939 eV

  energy without entropy =      -45.37472939  energy(sigma->0) =      -45.37472939
  exchange ACFDT corr.  =         0.00000000  see jH, gK, PRB 81, 115126


--------------------------------------------------------------------------------------------------------




--------------------------------------- Iteration      1(   7)  ---------------------------------------


    POTLOK:  cpu time      0.0054: real time      0.0054
    SETDIJ:  cpu time      0.1127: real time      0.1127
    TRIAL :  cpu time    179.6049: real time    179.6181
    CORREC:  cpu time    180.4963: real time    180.5092
    CHARGE:  cpu time      0.0077: real time      0.0077
    --------------------------------------------
      LOOP:  cpu time    360.2353: real time    360.2618

 eigenvalue-minimisations  :     0
[...]
     39      18.8485      0.00000
     40      20.6544      0.00000
     41      21.2056      0.00000
     42      21.5716      0.00000
     43      21.5716      0.00000
     44      21.7177      0.00000
     45      24.7326      0.00000
     46      24.7326      0.00000
     47      24.8379      0.00000
     48      24.8731      0.00000

 k-point    30 :       0.5000    0.3750    0.2500
  band No.  band energies     occupation 
      1     -40.2403      2.00000
      2     -40.2403      2.00000
      3     -40.2345      2.00000
      4     -40.2345      2.00000
      5     -40.1791      2.00000
      6     -40.1791      2.00000
      7     -40.1696      2.00000
      8     -40.1696      2.00000
      9     -40.1667      2.00000
     10     -40.1667      2.00000
     11     -40.1629      2.00000
     12     -40.1629      2.00000
     13     -16.3743      2.00000
     14     -16.3743      2.00000
     15     -16.1144      2.00000
     16     -16.1144      2.00000
     17      -3.2747      2.00000
     18      -3.2747      2.00000
     19      -3.0042      2.00000
     20      -3.0042      2.00000
     21      -0.3649      2.00000
     22      -0.3649      2.00000
     23       0.2515      2.00000
     24       0.2515      2.00000
     25       0.4244      2.00000
     26       0.4244      2.00000
     27       0.6173      2.00000
     28       0.6173      2.00000
     29      12.4960      0.00000
     30      12.4960      0.00000
     31      13.2137      0.00000
     32      13.2137      0.00000
     33      16.6858      0.00000
     34      16.6858      0.00000
     35      16.9168      0.00000
     36      16.9168      0.00000
     37      18.7335      0.00000
     38      18.7335      0.00000
     39      19.9021      0.00000
     40      19.9021      0.00000
     41      21.3046      0.00000
     42      21.3046      0.00000
     43      21.4897      0.00000
     44      21.4897      0.00000
     45      24.9703      0.00000
     46      24.9703      0.00000
     47      25.6208      0.00000
     48      25.6209      0.00000

 k-point    31 :       0.5000    0.5000    0.2500
  band No.  band energies     occupation 
      1     -40.2398      2.00000
      2     -40.2398      2.00000
      3     -40.2398      2.00000
      4     -40.2398      2.00000
      5     -40.1736      2.00000
      6     -40.1736      2.00000
      7     -40.1736      2.00000
      8     -40.1736      2.00000
      9     -40.1632      2.00000
     10     -40.1632      2.00000
     11     -40.1632      2.00000
     12     -40.1632      2.00000
     13     -16.2329      2.00000
     14     -16.2329      2.00000
     15     -16.2329      2.00000
     16     -16.2329      2.00000
     17      -3.2532      2.00000
     18      -3.2532      2.00000
     19      -3.2532      2.00000
     20      -3.2532      2.00000
     21      -0.0147      2.00000
     22      -0.0147      2.00000
     23      -0.0147      2.00000
     24      -0.0147      2.00000
     25       0.5843      2.00000
     26       0.5843      2.00000
     27       0.5843      2.00000
     28       0.5843      2.00000
     29      12.7308      0.00000
     30      12.7308      0.00000
     31      12.7308      0.00000
     32      12.7308      0.00000
     33      16.8994      0.00000
     34      16.8994      0.00000
     35      16.8994      0.00000
     36      16.8994      0.00000
     37      19.4826      0.00000
     38      19.4826      0.00000
     39      19.4826      0.00000
     40      19.4826      0.00000
     41      21.3278      0.00000
     42      21.3278      0.00000
     43      21.3278      0.00000
     44      21.3278      0.00000
     45      25.9860      0.00000
     46      25.9867      0.00000
     47      25.9882      0.00000
     48      25.9903      0.00000

 k-point    32 :       0.3750    0.3750    0.3750
  band No.  band energies     occupation 
      1     -40.2442      2.00000
      2     -40.2442      2.00000
      3     -40.2442      2.00000
      4     -40.2374      2.00000
      5     -40.1710      2.00000
      6     -40.1710      2.00000
      7     -40.1710      2.00000
      8     -40.1665      2.00000
      9     -40.1665      2.00000
     10     -40.1665      2.00000
     11     -40.1619      2.00000
     12     -40.1619      2.00000
     13     -16.4340      2.00000
     14     -16.1549      2.00000
     15     -16.1549      2.00000
     16     -16.1549      2.00000
     17      -3.4469      2.00000
     18      -3.4469      2.00000
     19      -3.4469      2.00000
     20      -3.1231      2.00000
     21       0.0524      2.00000
     22       0.0524      2.00000
     23       0.0524      2.00000
     24       0.4629      2.00000
     25       0.4629      2.00000
     26       0.4629      2.00000
     27       0.6861      2.00000
     28       0.6861      2.00000
     29      11.9296      0.00000
     30      12.7121      0.00000
     31      12.7121      0.00000
     32      12.7121      0.00000
     33      16.9472      0.00000
     34      17.0362      0.00000
     35      17.0362      0.00000
     36      17.0362      0.00000
     37      19.3533      0.00000
     38      19.3533      0.00000
     39      19.3533      0.00000
     40      20.9655      0.00000
     41      20.9656      0.00000
     42      21.2743      0.00000
     43      21.2743      0.00000
     44      21.2743      0.00000
     45      25.5066      0.00000
     46      25.5066      0.00000
     47      25.5078      0.00000
     48      26.1725      0.00000

 k-point    33 :       0.5000    0.3750    0.3750
  band No.  band energies     occupation 
      1     -40.2469      2.00000
      2     -40.2469      2.00000
      3     -40.2434      2.00000
      4     -40.2434      2.00000
      5     -40.1701      2.00000
      6     -40.1701      2.00000
      7     -40.1652      2.00000
      8     -40.1652      2.00000
      9     -40.1641      2.00000
     10     -40.1641      2.00000
     11     -40.1639      2.00000
     12     -40.1639      2.00000
     13     -16.2830      2.00000
     14     -16.2830      2.00000
     15     -16.1410      2.00000
     16     -16.1410      2.00000
     17      -3.5641      2.00000
     18      -3.5641      2.00000
     19      -3.4100      2.00000
     20      -3.4100      2.00000
     21       0.1374      2.00000
     22       0.1374      2.00000
     23       0.4987      2.00000
     24       0.4987      2.00000
     25       0.5076      2.00000
     26       0.5076      2.00000
     27       0.5728      2.00000
     28       0.5728      2.00000
     29      12.1653      0.00000
     30      12.1653      0.00000
     31      12.5555      0.00000
     32      12.5555      0.00000
     33      17.0587      0.00000
     34      17.0587      0.00000
     35      17.1769      0.00000
     36      17.1769      0.00000
     37      19.6035      0.00000
     38      19.6035      0.00000
     39      20.4143      0.00000
     40      20.4143      0.00000
     41      21.0002      0.00000
     42      21.0002      0.00000
     43      21.1317      0.00000
     44      21.1317      0.00000
     45      25.9866      0.00000
     46      25.9875      0.00000
     47      26.3544      0.00000
     48      26.3574      0.00000

 k-point    34 :       0.5000    0.5000    0.3750
  band No.  band energies     occupation 
      1     -40.2481      2.00000
      2     -40.2481      2.00000
      3     -40.2481      2.00000
      4     -40.2481      2.00000
      5     -40.1660      2.00000
      6     -40.1660      2.00000
      7     -40.1660      2.00000
      8     -40.1660      2.00000
      9     -40.1631      2.00000
     10     -40.1631      2.00000
     11     -40.1631      2.00000
     12     -40.1631      2.00000
     13     -16.1985      2.00000
     14     -16.1985      2.00000
     15     -16.1985      2.00000
     16     -16.1985      2.00000
     17      -3.6132      2.00000
     18      -3.6132      2.00000
     19      -3.6132      2.00000
     20      -3.6132      2.00000
     21       0.4202      2.00000
     22       0.4202      2.00000
     23       0.4202      2.00000
     24       0.4202      2.00000
     25       0.5838      2.00000
     26       0.5838      2.00000
     27       0.5838      2.00000
     28       0.5838      2.00000
     29      12.1783      0.00000
     30      12.1783      0.00000
     31      12.1783      0.00000
     32      12.1783      0.00000
     33      17.2228      0.00000
     34      17.2228      0.00000
     35      17.2228      0.00000
     36      17.2228      0.00000
     37      20.3417      0.00000
     38      20.3417      0.00000
     39      20.3417      0.00000
     40      20.3417      0.00000
     41      20.9435      0.00000
     42      20.9435      0.00000
     43      20.9435      0.00000
     44      20.9435      0.00000
     45      26.3259      0.00000
     46      26.3306      0.00000
     47      26.3425      0.00000
     48      26.3548      0.00000

 k-point    35 :       0.5000    0.5000    0.5000
  band No.  band energies     occupation 
      1     -40.2514      2.00000
      2     -40.2514      2.00000
      3     -40.2514      2.00000
      4     -40.2514      2.00000
      5     -40.1632      2.00000
      6     -40.1632      2.00000
      7     -40.1632      2.00000
      8     -40.1632      2.00000
      9     -40.1632      2.00000
     10     -40.1632      2.00000
     11     -40.1632      2.00000
     12     -40.1632      2.00000
     13     -16.1841      2.00000
     14     -16.1841      2.00000
     15     -16.1841      2.00000
     16     -16.1841      2.00000
     17      -3.7436      2.00000
     18      -3.7436      2.00000
     19      -3.7436      2.00000
     20      -3.7436      2.00000
     21       0.5835      2.00000
     22       0.5835      2.00000
     23       0.5835      2.00000
     24       0.5835      2.00000
     25       0.5835      2.00000
     26       0.5835      2.00000
     27       0.5835      2.00000
     28       0.5835      2.00000
     29      11.9726      0.00000
     30      11.9726      0.00000
     31      11.9726      0.00000
     32      11.9726      0.00000
     33      17.3291      0.00000
     34      17.3291      0.00000
     35      17.3291      0.00000
     36      17.3291      0.00000
     37      20.8094      0.00000
     38      20.8094      0.00000
     39      20.8094      0.00000
     40      20.8094      0.00000
     41      20.8094      0.00000
     42      20.8094      0.00000
     43      20.8094      0.00000
     44      20.8094      0.00000
     45      25.6213      0.00000
     46      25.6213      0.00000
     47      25.6213      0.00000
     48      25.6215      0.00000


--------------------------------------------------------------------------------------------------------


 soft charge-density along one line, spin component           1
         0         1         2         3         4         5         6         7         8         9
 total charge-density along one line

 pseudopotential strength for first ion, spin component:           1
-45.574   0.000   0.000   3.870  -0.000  -0.000   0.000  -0.000
  0.000 -45.574  -0.000  -0.000   3.870   0.000   0.000  -0.000
  0.000  -0.000 -45.574  -0.000   0.000   3.870   0.000  -0.000
  3.870  -0.000  -0.000   5.393   0.000   0.000   0.000  -0.000
 -0.000   3.870   0.000   0.000   5.393   0.000   0.000  -0.000
 -0.000   0.000   3.870   0.000   0.000   5.393   0.000  -0.000
  0.000   0.000   0.000   0.000   0.000   0.000   2.852 -10.309
 -0.000  -0.000  -0.000  -0.000  -0.000  -0.000 -10.309  42.726
 -0.000  -0.000  -0.000   0.000  -0.000   0.000  -0.000   0.000
 -0.000  -0.000  -0.000   0.000   0.000  -0.000  -0.000   0.000
  0.000  -0.000   0.000  -0.000   0.000  -0.000   0.000  -0.000
 -0.000  -0.000  -0.000  -0.000  -0.000   0.000   0.000  -0.000
  0.000  -0.000   0.000  -0.000   0.000   0.000  -0.000   0.000
 total augmentation occupancy for first ion, spin component:           1
  2.003   0.000   0.000  -0.006   0.000   0.000   0.000  -0.000   0.000   0.000  -0.000   0.000   0.000
 -0.000   2.003  -0.000   0.000  -0.006   0.000   0.000   0.000   0.000   0.000  -0.000   0.000   0.000
 -0.000   0.000   2.003   0.000  -0.000  -0.006   0.000   0.000   0.000   0.000  -0.000   0.000  -0.000
 -0.006  -0.000  -0.000   0.076   0.000   0.000  -0.000  -0.000  -0.000   0.000   0.000   0.000   0.000
 -0.000  -0.006  -0.000   0.000   0.076  -0.000   0.000   0.000   0.000   0.000  -0.000   0.000  -0.000
 -0.000   0.000  -0.006   0.000  -0.000   0.076   0.000  -0.000   0.000   0.000  -0.000   0.000   0.000
 -0.000   0.000   0.000   0.000  -0.000   0.000   0.867   0.024   0.000   0.000  -0.000  -0.000   0.000
  0.000   0.000  -0.000  -0.000   0.000   0.000   0.024   0.001  -0.000   0.000  -0.000  -0.000   0.000
  0.000   0.000   0.000   0.000  -0.000  -0.000  -0.000  -0.000   0.013   0.000   0.000   0.000   0.000
  0.000   0.000   0.000   0.000  -0.000   0.000   0.000  -0.000  -0.000   0.013  -0.000  -0.000  -0.000
  0.000   0.000   0.000   0.000  -0.000   0.000   0.000   0.000   0.000  -0.000   0.055  -0.000  -0.000
  0.000   0.000   0.000  -0.000   0.000   0.000  -0.000  -0.000  -0.000   0.000  -0.000   0.013  -0.000
  0.000   0.000   0.000   0.000   0.000   0.000   0.000   0.000  -0.000   0.000  -0.000   0.000   0.055


------------------------ aborting loop because EDIFF is reached ----------------------------------------


    FORLOC:  cpu time      0.0003: real time      0.0003
    FORHF :  cpu time    174.3130: real time    174.3259
    FORNL :  cpu time      0.0065: real time      0.0065
    STRESS:  cpu time      0.0687: real time      0.0687
    FORCOR:  cpu time      0.0052: real time      0.0052
    OFIELD:  cpu time      0.0001: real time      0.0001
    FORVDW:  cpu time      5.0956: real time      5.2682

  FORCE on cell =-STRESS in cart. coord.  units (eV):
  Direction    XX          YY          ZZ          XY          YZ          ZX
  --------------------------------------------------------------------------------------
  Alpha Z   285.70512   285.70512   285.70512
  Ewald   -1294.91474 -1294.91474 -1294.91474    -0.00000    -0.00000     0.00000
  Hartree   403.20274   403.20274   403.20274    -0.00000    -0.00000    -0.00000
  E(xc)    -233.08489  -233.08489  -233.08489     0.00000    -0.00000    -0.00000
  Local     218.34164   218.34164   218.34164     0.00000    -0.00000    -0.00000
  n-local   -89.92693   -90.52758   -89.85722     0.01999     0.02896     0.01251
  augment   102.87749   102.87749   102.87749     0.00000    -0.00000     0.00000
  Kinetic   916.86408   924.72966   927.31894    -2.64518    -2.63942    -1.61137
  Fock     -313.20980  -313.59015  -313.86882     0.07160     0.06196     0.04076
  vdW        -1.42323    -1.42323    -1.42323     0.00000     0.00000    -0.00000
  -------------------------------------------------------------------------------------
  Total       0.01486     0.01486     0.01486    -0.00000     0.00000    -0.00000
  in kB       0.32727     0.32727     0.32727    -0.00000     0.00000    -0.00000
  external pressure =        0.33 kB  Pullay stress =        0.00 kB


 VOLUME and BASIS-vectors are now :
 -----------------------------------------------------------------------------
  energy-cutoff  :      600.00
  volume of cell :       72.75
      direct lattice vectors                 reciprocal lattice vectors
     4.174555913 -0.000000000 -0.000000000     0.239546438  0.000000000 -0.000000000
    -0.000000000  4.174555913 -0.000000000     0.000000000  0.239546438 -0.000000000
     0.000000000  0.000000000  4.174555913     0.000000000  0.000000000  0.239546438

  length of vectors
     4.174555913  4.174555913  4.174555913     0.239546438  0.239546438  0.239546438


 FORCES acting on ions:
    Electron-Ion                     Ewald-Force                    Non-Local-Force
 -----------------------------------------------------------------------------------------------
   -.291E-13 -.298E-13 -.295E-13   -.242E-14 0.968E-16 -.160E-14   -.662E-23 0.455E-22 -.164E-22
   -.290E-13 0.386E-12 0.382E-12   -.259E-14 0.410E-14 0.352E-14   -.182E-22 -.463E-22 0.444E-22
   0.387E-12 -.262E-13 0.291E-11   -.673E-14 0.229E-14 0.343E-14   0.199E-22 0.199E-22 -.105E-22
   0.383E-12 0.957E-12 -.356E-12   -.689E-14 0.629E-14 -.711E-14   -.364E-22 -.199E-22 0.252E-22
   0.160E-12 -.238E-13 -.153E-11   0.806E-14 -.676E-14 -.171E-14   0.207E-23 -.103E-23 -.673E-24
   0.158E-12 0.120E-12 0.742E-12   0.815E-14 0.235E-16 0.306E-14   0.000E+00 0.310E-24 -.456E-24
   -.342E-13 -.241E-13 0.167E-12   0.782E-15 -.634E-14 0.307E-14   0.517E-24 0.168E-23 0.791E-24
   -.341E-13 0.173E-12 -.211E-13   0.874E-15 0.440E-15 -.391E-14   -.165E-23 -.103E-24 -.690E-24
 -----------------------------------------------------------------------------------------------
   0.977E-12 0.155E-11 0.230E-11   -.766E-15 0.126E-15 -.124E-14   -.404E-22 0.258E-25 0.416E-22


 POSITION                                       TOTAL-FORCE (eV/Angst)
 -----------------------------------------------------------------------------------
      0.00000      0.00000      0.00000         0.000000     -0.000000      0.000000
      0.00000      2.08728      2.08728         0.000000     -0.000000     -0.000000
      2.08728      0.00000      2.08728         0.000000      0.000000     -0.000000
      2.08728      2.08728      0.00000        -0.000000      0.000000      0.000000
      2.08728      0.00000      0.00000         0.000000     -0.000000      0.000000
      2.08728      2.08728      2.08728        -0.000000     -0.000000     -0.000000
      0.00000      0.00000      2.08728         0.000000     -0.000000     -0.000000
      0.00000      2.08728      0.00000        -0.000000      0.000000     -0.000000
 -----------------------------------------------------------------------------------
    total drift:                                0.000000      0.000000      0.000000


--------------------------------------------------------------------------------------------------------



  FREE ENERGIE OF THE ION-ELECTRON SYSTEM (eV)
  ---------------------------------------------------
  free  energy   TOTEN  =       -60.34891922 eV

  energy  without entropy=      -60.34891922  energy(sigma->0) =      -60.34891922



--------------------------------------------------------------------------------------------------------


    POTLOK:  cpu time      0.1695: real time      0.1708


--------------------------------------------------------------------------------------------------------




--------------------------------------------------------------------------------------------------------


  
 reached required accuracy - stopping structural energy minimisation
     LOOP+:  cpu time   5541.7111: real time   5542.5072
    4ORBIT:  cpu time      0.0000: real time      0.0000

 total amount of memory used by VASP MPI-rank0    49027. kBytes
=======================================================================

   base      :      30000. kBytes
   nonl-proj :       4978. kBytes
   fftplans  :        487. kBytes
   grid      :        402. kBytes
   one-center:         16. kBytes
   HF        :         67. kBytes
   nonlr-proj:       2332. kBytes
   wavefun   :       1209. kBytes
   fock_wrk  :       9536. kBytes

  
  
 General timing and accounting informations for this job:
 ========================================================
  
                  Total CPU time used (sec):     5547.542
                            User time (sec):     5517.664
                          System time (sec):       29.878
                         Elapsed time (sec):     5550.192
  
                   Maximum memory used (kb):      129632.
                   Average memory used (kb):          N/A
  
                          Minor page faults:        59928
                          Major page faults:            0
                 Voluntary context switches:         5632
