 **********************************************************************
                          MRCC program system
 **********************************************************************
 
                              Written by
     Mihaly Kallay, Peter R. Nagy, David Mester, Laszlo Gyevi-Nagy,
        Jozsef Csoka, P. Bernat Szabo, Zoltan Rolik, Gyula Samu,
     Jozsef Csontos, Bence Hegely, Adam Ganyecz, Istvan Ladjanszki,
       Lorant Szegedy, Bence Ladoczki, Klara Petrov, Mate Farkas,
                    Pal D. Mezei, and Reka A. Horvath
 
        Department of Physical Chemistry and Materials Science
            Budapest University of Technology and Economics
                  Budapest P.O.Box 91, H-1521 Hungary
 
                              www.mrcc.hu
 
                     Release date: August 28, 2023

 ************************ 2024-11-25 16:08:47 *************************
 Executing minp...

 Reading input from MINP...
 
 Input file:
 
calc=LNO-CCSD(T)
scftype=rhf
verbosity=3
mem=200000MB
symm=off
unit=angs
scfiguess=small
scfmaxit=1000
scfalg=locfit1
bpedo=0.99999
ccmaxit=400
usedisk=0
ccsdalg=dfdirect
ccsdthreads=4
ccsdmkl=thr
ptthreads=4
lcorthr=tight
basis_sm=special
def2-SVP
def2-SVP
def2-SVP
def2-SVP
def2-SVP
def2-SVP
def2-SVP
def2-SVP
def2-SVP
def2-SVP
def2-SVP
def2-SVP
def2-SVP
def2-SVP
def2-SVP
def2-SVP
def2-SVP
def2-SVP
def2-SVP
def2-SVP
def2-SVP
def2-SVP
def2-SVP
def2-SVP
no-basis-set
no-basis-set
no-basis-set
no-basis-set
no-basis-set
no-basis-set
no-basis-set
no-basis-set
no-basis-set
no-basis-set
no-basis-set
no-basis-set
no-basis-set
no-basis-set
no-basis-set
no-basis-set
no-basis-set
no-basis-set
no-basis-set
no-basis-set
no-basis-set
no-basis-set
no-basis-set
no-basis-set
no-basis-set
no-basis-set
no-basis-set
no-basis-set
no-basis-set
no-basis-set
no-basis-set
no-basis-set
no-basis-set
no-basis-set
no-basis-set
no-basis-set
no-basis-set
no-basis-set
no-basis-set
no-basis-set
no-basis-set
no-basis-set
no-basis-set
no-basis-set
no-basis-set
no-basis-set
no-basis-set
no-basis-set
no-basis-set
no-basis-set
no-basis-set
no-basis-set
no-basis-set
no-basis-set
no-basis-set
no-basis-set
no-basis-set
no-basis-set
no-basis-set
no-basis-set
no-basis-set
no-basis-set
no-basis-set
no-basis-set
no-basis-set
no-basis-set
no-basis-set
no-basis-set
no-basis-set
no-basis-set
no-basis-set
no-basis-set
no-basis-set
no-basis-set
no-basis-set
no-basis-set
no-basis-set
no-basis-set
no-basis-set
no-basis-set
no-basis-set
no-basis-set
no-basis-set
no-basis-set
no-basis-set
no-basis-set
no-basis-set
no-basis-set
no-basis-set
no-basis-set
no-basis-set
no-basis-set
no-basis-set
no-basis-set
no-basis-set
no-basis-set
no-basis-set


basis=special
aug-cc-pVDZ
aug-cc-pVDZ
cc-pVDZ
aug-cc-pVDZ
aug-cc-pVDZ
aug-cc-pVDZ
aug-cc-pVDZ
aug-cc-pVDZ
cc-pVDZ
cc-pVDZ
cc-pVDZ
cc-pVDZ
aug-cc-pVDZ
aug-cc-pVDZ
aug-cc-pVDZ
aug-cc-pVDZ
aug-cc-pVDZ
aug-cc-pVDZ
aug-cc-pVDZ
aug-cc-pVDZ
aug-cc-pVDZ
aug-cc-pVDZ
aug-cc-pVDZ
aug-cc-pVDZ
no-basis-set
no-basis-set
no-basis-set
no-basis-set
no-basis-set
no-basis-set
no-basis-set
no-basis-set
no-basis-set
no-basis-set
no-basis-set
no-basis-set
no-basis-set
no-basis-set
no-basis-set
no-basis-set
no-basis-set
no-basis-set
no-basis-set
no-basis-set
no-basis-set
no-basis-set
no-basis-set
no-basis-set
no-basis-set
no-basis-set
no-basis-set
no-basis-set
no-basis-set
no-basis-set
no-basis-set
no-basis-set
no-basis-set
no-basis-set
no-basis-set
no-basis-set
no-basis-set
no-basis-set
no-basis-set
no-basis-set
no-basis-set
no-basis-set
no-basis-set
no-basis-set
no-basis-set
no-basis-set
no-basis-set
no-basis-set
no-basis-set
no-basis-set
no-basis-set
no-basis-set
no-basis-set
no-basis-set
no-basis-set
no-basis-set
no-basis-set
no-basis-set
no-basis-set
no-basis-set
no-basis-set
no-basis-set
no-basis-set
no-basis-set
no-basis-set
no-basis-set
no-basis-set
no-basis-set
no-basis-set
no-basis-set
no-basis-set
no-basis-set
no-basis-set
no-basis-set
no-basis-set
no-basis-set
no-basis-set
no-basis-set
no-basis-set
no-basis-set
no-basis-set
no-basis-set
no-basis-set
no-basis-set
no-basis-set
no-basis-set
no-basis-set
no-basis-set
no-basis-set
no-basis-set
no-basis-set
no-basis-set
no-basis-set
no-basis-set
no-basis-set
no-basis-set
no-basis-set


dfbasis_scf=special
def2-QZVPP-RI-JK
def2-QZVPP-RI-JK
def2-QZVPP-RI-JK
def2-QZVPP-RI-JK
def2-QZVPP-RI-JK
def2-QZVPP-RI-JK
def2-QZVPP-RI-JK
def2-QZVPP-RI-JK
def2-QZVPP-RI-JK
def2-QZVPP-RI-JK
def2-QZVPP-RI-JK
def2-QZVPP-RI-JK
def2-QZVPP-RI-JK
def2-QZVPP-RI-JK
def2-QZVPP-RI-JK
def2-QZVPP-RI-JK
def2-QZVPP-RI-JK
def2-QZVPP-RI-JK
def2-QZVPP-RI-JK
def2-QZVPP-RI-JK
def2-QZVPP-RI-JK
def2-QZVPP-RI-JK
def2-QZVPP-RI-JK
def2-QZVPP-RI-JK
no-basis-set
no-basis-set
no-basis-set
no-basis-set
no-basis-set
no-basis-set
no-basis-set
no-basis-set
no-basis-set
no-basis-set
no-basis-set
no-basis-set
no-basis-set
no-basis-set
no-basis-set
no-basis-set
no-basis-set
no-basis-set
no-basis-set
no-basis-set
no-basis-set
no-basis-set
no-basis-set
no-basis-set
no-basis-set
no-basis-set
no-basis-set
no-basis-set
no-basis-set
no-basis-set
no-basis-set
no-basis-set
no-basis-set
no-basis-set
no-basis-set
no-basis-set
no-basis-set
no-basis-set
no-basis-set
no-basis-set
no-basis-set
no-basis-set
no-basis-set
no-basis-set
no-basis-set
no-basis-set
no-basis-set
no-basis-set
no-basis-set
no-basis-set
no-basis-set
no-basis-set
no-basis-set
no-basis-set
no-basis-set
no-basis-set
no-basis-set
no-basis-set
no-basis-set
no-basis-set
no-basis-set
no-basis-set
no-basis-set
no-basis-set
no-basis-set
no-basis-set
no-basis-set
no-basis-set
no-basis-set
no-basis-set
no-basis-set
no-basis-set
no-basis-set
no-basis-set
no-basis-set
no-basis-set
no-basis-set
no-basis-set
no-basis-set
no-basis-set
no-basis-set
no-basis-set
no-basis-set
no-basis-set
no-basis-set
no-basis-set
no-basis-set
no-basis-set
no-basis-set
no-basis-set
no-basis-set
no-basis-set
no-basis-set
no-basis-set
no-basis-set
no-basis-set
no-basis-set


dfbasis_cor=special
aug-cc-pVDZ-RI
aug-cc-pVDZ-RI
cc-pVDZ-RI
aug-cc-pVDZ-RI
aug-cc-pVDZ-RI
aug-cc-pVDZ-RI
aug-cc-pVDZ-RI
aug-cc-pVDZ-RI
cc-pVDZ-RI
cc-pVDZ-RI
cc-pVDZ-RI
cc-pVDZ-RI
aug-cc-pVDZ-RI
aug-cc-pVDZ-RI
aug-cc-pVDZ-RI
aug-cc-pVDZ-RI
aug-cc-pVDZ-RI
aug-cc-pVDZ-RI
aug-cc-pVDZ-RI
aug-cc-pVDZ-RI
aug-cc-pVDZ-RI
aug-cc-pVDZ-RI
aug-cc-pVDZ-RI
aug-cc-pVDZ-RI
no-basis-set
no-basis-set
no-basis-set
no-basis-set
no-basis-set
no-basis-set
no-basis-set
no-basis-set
no-basis-set
no-basis-set
no-basis-set
no-basis-set
no-basis-set
no-basis-set
no-basis-set
no-basis-set
no-basis-set
no-basis-set
no-basis-set
no-basis-set
no-basis-set
no-basis-set
no-basis-set
no-basis-set
no-basis-set
no-basis-set
no-basis-set
no-basis-set
no-basis-set
no-basis-set
no-basis-set
no-basis-set
no-basis-set
no-basis-set
no-basis-set
no-basis-set
no-basis-set
no-basis-set
no-basis-set
no-basis-set
no-basis-set
no-basis-set
no-basis-set
no-basis-set
no-basis-set
no-basis-set
no-basis-set
no-basis-set
no-basis-set
no-basis-set
no-basis-set
no-basis-set
no-basis-set
no-basis-set
no-basis-set
no-basis-set
no-basis-set
no-basis-set
no-basis-set
no-basis-set
no-basis-set
no-basis-set
no-basis-set
no-basis-set
no-basis-set
no-basis-set
no-basis-set
no-basis-set
no-basis-set
no-basis-set
no-basis-set
no-basis-set
no-basis-set
no-basis-set
no-basis-set
no-basis-set
no-basis-set
no-basis-set
no-basis-set
no-basis-set
no-basis-set
no-basis-set
no-basis-set
no-basis-set
no-basis-set
no-basis-set
no-basis-set
no-basis-set
no-basis-set
no-basis-set
no-basis-set
no-basis-set
no-basis-set
no-basis-set
no-basis-set
no-basis-set
no-basis-set


ecp=special
none
none
none
none
none
none
none
none
none
none
none
none
none
none
none
none
none
none
none
none
none
none
none
none
capECP
capECP
capECP
capECP
capECP
capECP
capECP
capECP
capECP
capECP
capECP
capECP
capECP
capECP
capECP
capECP
capECP
capECP
capECP
capECP
capECP
capECP
capECP
capECP
capECP
capECP
capECP
capECP
capECP
capECP
capECP
capECP
capECP
capECP
capECP
capECP
capECP
capECP
capECP
capECP
capECP
capECP
capECP
capECP
capECP
capECP
capECP
capECP
capECP
capECP
capECP
capECP
capECP
capECP
capECP
capECP
capECP
capECP
capECP
capECP
capECP
capECP
capECP
capECP
capECP
capECP
capECP
capECP
capECP
capECP
capECP
capECP
capECP
capECP
capECP
capECP
capECP
capECP
capECP
capECP
capECP
capECP
capECP
capECP
capECP
capECP
capECP
capECP
capECP
capECP
capECP
capECP
capECP
capECP
capECP
capECP
capECP

charge=-24
mult=1
core=42
geom=xyz
121

C                       0.00000000000    0.00000000000    2.44102235837
O                       0.00000000000    0.00000000000    3.58784217303
Mg                      0.00000000000    0.00000000000    0.00000000000
O                      -2.12018425659    0.00000000000    0.00567209089
O                       0.00000000000    2.12018425659    0.00567209089
O                       2.12018425659    0.00000000000    0.00567209089
O                       0.00000000000   -2.12018425659    0.00567209089
O                       0.00000000000    0.00000000000   -2.14129966123
Mg                     -2.11144262254    2.11144262254   -0.04367284424
Mg                      2.11144262254    2.11144262254   -0.04367284424
Mg                      2.11144262254   -2.11144262254   -0.04367284424
Mg                     -2.11144262254   -2.11144262254   -0.04367284424
O                      -2.11070451449    2.11070451449   -2.14923989662
O                       2.11070451449    2.11070451449   -2.14923989662
O                       2.11070451449   -2.11070451449   -2.14923989662
O                      -2.11070451449   -2.11070451449   -2.14923989662
O                      -4.22049352791    2.11209139723    0.00772802266
O                      -2.11209139723    4.22049352791    0.00772802266
O                       2.11209139723    4.22049352791    0.00772802266
O                       4.22049352791    2.11209139723    0.00772802266
O                       4.22049352791   -2.11209139723    0.00772802266
O                       2.11209139723   -4.22049352791    0.00772802266
O                      -2.11209139723   -4.22049352791    0.00772802266
O                      -4.22049352791   -2.11209139723    0.00772802266
Mg                     -2.10705287155    0.00000000000   -2.14155206950
Mg                      0.00000000000    2.10705287155   -2.14155206950
Mg                      2.10705287155    0.00000000000   -2.14155206950
Mg                      0.00000000000   -2.10705287155   -2.14155206950
Mg                     -4.22049352791    0.00000000000   -0.04269731856
Mg                      0.00000000000    4.22049352791   -0.04269731856
Mg                      4.22049352791    0.00000000000   -0.04269731856
Mg                      0.00000000000   -4.22049352791   -0.04269731856
Mg                      0.00000000000    0.00000000000   -4.26789528527
Mg                     -4.22049352791    2.10973412517   -2.14445912302
Mg                     -2.10973412517    4.22049352791   -2.14445912302
Mg                      2.10973412517    4.22049352791   -2.14445912302
Mg                      4.22049352791    2.10973412517   -2.14445912302
Mg                      4.22049352791   -2.10973412517   -2.14445912302
Mg                      2.10973412517   -4.22049352791   -2.14445912302
Mg                     -2.10973412517   -4.22049352791   -2.14445912302
Mg                     -4.22049352791   -2.10973412517   -2.14445912302
Mg                     -2.11024676395    2.11024676395   -4.26789528527
Mg                      2.11024676395    2.11024676395   -4.26789528527
Mg                      2.11024676395   -2.11024676395   -4.26789528527
Mg                     -2.11024676395   -2.11024676395   -4.26789528527
Mg                     -4.22049352791    4.22049352791   -0.03992370948
Mg                      4.22049352791    4.22049352791   -0.03992370948
Mg                      4.22049352791   -4.22049352791   -0.03992370948
Mg                     -4.22049352791   -4.22049352791   -0.03992370948
Mg                     -4.22049352791    0.00000000000   -4.26789528527
Mg                      0.00000000000    4.22049352791   -4.26789528527
Mg                      4.22049352791    0.00000000000   -4.26789528527
Mg                      0.00000000000   -4.22049352791   -4.26789528527
Mg                     -6.32954443328    2.11144262254   -0.04367284424
Mg                     -2.11144262254    6.32954443328   -0.04367284424
Mg                      2.11144262254    6.32954443328   -0.04367284424
Mg                      6.32954443328    2.11144262254   -0.04367284424
Mg                      6.32954443328   -2.11144262254   -0.04367284424
Mg                      2.11144262254   -6.32954443328   -0.04367284424
Mg                     -2.11144262254   -6.32954443328   -0.04367284424
Mg                     -6.32954443328   -2.11144262254   -0.04367284424
Mg                     -6.33393418427    0.00000000000   -2.14155206950
Mg                      0.00000000000    6.33393418427   -2.14155206950
Mg                      6.33393418427    0.00000000000   -2.14155206950
Mg                      0.00000000000   -6.33393418427   -2.14155206950
Mg                     -2.11024676395    0.00000000000   -6.37814204923
Mg                      0.00000000000    2.11024676395   -6.37814204923
Mg                      2.11024676395    0.00000000000   -6.37814204923
Mg                      0.00000000000   -2.11024676395   -6.37814204923
Mg                     -4.22049352791    4.22049352791   -4.26789528527
Mg                      4.22049352791    4.22049352791   -4.26789528527
Mg                      4.22049352791   -4.22049352791   -4.26789528527
Mg                     -4.22049352791   -4.22049352791   -4.26789528527
Mg                     -6.33125293065    4.22049352791   -2.14445912302
Mg                     -4.22049352791    6.33125293065   -2.14445912302
Mg                      4.22049352791    6.33125293065   -2.14445912302
Mg                      6.33125293065    4.22049352791   -2.14445912302
Mg                      6.33125293065   -4.22049352791   -2.14445912302
Mg                      4.22049352791   -6.33125293065   -2.14445912302
Mg                     -4.22049352791   -6.33125293065   -2.14445912302
Mg                     -6.33125293065   -4.22049352791   -2.14445912302
Mg                     -6.33074029186    2.11024676395   -4.26789528527
Mg                     -2.11024676395    6.33074029186   -4.26789528527
Mg                      2.11024676395    6.33074029186   -4.26789528527
Mg                      6.33074029186    2.11024676395   -4.26789528527
Mg                      6.33074029186   -2.11024676395   -4.26789528527
Mg                      2.11024676395   -6.33074029186   -4.26789528527
Mg                     -2.11024676395   -6.33074029186   -4.26789528527
Mg                     -6.33074029186   -2.11024676395   -4.26789528527
Mg                     -4.22049352791    2.11024676395   -6.37814204923
Mg                     -2.11024676395    4.22049352791   -6.37814204923
Mg                      2.11024676395    4.22049352791   -6.37814204923
Mg                      4.22049352791    2.11024676395   -6.37814204923
Mg                      4.22049352791   -2.11024676395   -6.37814204923
Mg                      2.11024676395   -4.22049352791   -6.37814204923
Mg                     -2.11024676395   -4.22049352791   -6.37814204923
Mg                     -4.22049352791   -2.11024676395   -6.37814204923
Mg                     -8.44098705582    0.00000000000    0.00000000000
Mg                      0.00000000000    8.44098705582    0.00000000000
Mg                      8.44098705582    0.00000000000    0.00000000000
Mg                      0.00000000000   -8.44098705582    0.00000000000
Mg                     -6.32954443328    6.32954443328   -0.04367284424
Mg                      6.32954443328    6.32954443328   -0.04367284424
Mg                      6.32954443328   -6.32954443328   -0.04367284424
Mg                     -6.32954443328   -6.32954443328   -0.04367284424
Mg                     -8.44098705582    2.10705287155   -2.14155206950
Mg                     -2.10705287155    8.44098705582   -2.14155206950
Mg                      2.10705287155    8.44098705582   -2.14155206950
Mg                      8.44098705582    2.10705287155   -2.14155206950
Mg                      8.44098705582   -2.10705287155   -2.14155206950
Mg                      2.10705287155   -8.44098705582   -2.14155206950
Mg                     -2.10705287155   -8.44098705582   -2.14155206950
Mg                     -8.44098705582   -2.10705287155   -2.14155206950
Mg                     -8.44098705582    4.22049352791   -0.04269731856
Mg                     -4.22049352791    8.44098705582   -0.04269731856
Mg                      4.22049352791    8.44098705582   -0.04269731856
Mg                      8.44098705582    4.22049352791   -0.04269731856
Mg                      8.44098705582   -4.22049352791   -0.04269731856
Mg                      4.22049352791   -8.44098705582   -0.04269731856
Mg                     -4.22049352791   -8.44098705582   -0.04269731856
Mg                     -8.44098705582   -4.22049352791   -0.04269731856

ghost=serialno
1,2

qmmm=Amber
pointcharges
10169
    -2.10705287155    0.00000000000   -2.14155206950    2.00000000000
     0.00000000000    2.10705287155   -2.14155206950    2.00000000000
     2.10705287155    0.00000000000   -2.14155206950    2.00000000000
     0.00000000000   -2.10705287155   -2.14155206950    2.00000000000
    -4.22049352791    0.00000000000   -0.04269731856    2.00000000000
     0.00000000000    4.22049352791   -0.04269731856    2.00000000000
     4.22049352791    0.00000000000   -0.04269731856    2.00000000000
     0.00000000000   -4.22049352791   -0.04269731856    2.00000000000
     0.00000000000    0.00000000000   -4.26789528527    2.00000000000
    -4.22049352791    0.00000000000   -2.15129719490   -2.00000000000
     0.00000000000    4.22049352791   -2.15129719490   -2.00000000000
     4.22049352791    0.00000000000   -2.15129719490   -2.00000000000
     0.00000000000   -4.22049352791   -2.15129719490   -2.00000000000
    -2.11024676395    0.00000000000   -4.26789528527   -2.00000000000
     0.00000000000    2.11024676395   -4.26789528527   -2.00000000000
     2.11024676395    0.00000000000   -4.26789528527   -2.00000000000
     0.00000000000   -2.11024676395   -4.26789528527   -2.00000000000
    -4.22049352791    2.10973412517   -2.14445912302    2.00000000000
    -2.10973412517    4.22049352791   -2.14445912302    2.00000000000
     2.10973412517    4.22049352791   -2.14445912302    2.00000000000
     4.22049352791    2.10973412517   -2.14445912302    2.00000000000
     4.22049352791   -2.10973412517   -2.14445912302    2.00000000000
     2.10973412517   -4.22049352791   -2.14445912302    2.00000000000
    -2.10973412517   -4.22049352791   -2.14445912302    2.00000000000
    -4.22049352791   -2.10973412517   -2.14445912302    2.00000000000
    -2.11024676395    2.11024676395   -4.26789528527    2.00000000000
     2.11024676395    2.11024676395   -4.26789528527    2.00000000000
     2.11024676395   -2.11024676395   -4.26789528527    2.00000000000
    -2.11024676395   -2.11024676395   -4.26789528527    2.00000000000
    -4.22049352791    4.22049352791   -0.03992370948    2.00000000000
     4.22049352791    4.22049352791   -0.03992370948    2.00000000000
     4.22049352791   -4.22049352791   -0.03992370948    2.00000000000
    -4.22049352791   -4.22049352791   -0.03992370948    2.00000000000
    -4.22049352791    0.00000000000   -4.26789528527    2.00000000000
     0.00000000000    4.22049352791   -4.26789528527    2.00000000000
     4.22049352791    0.00000000000   -4.26789528527    2.00000000000
     0.00000000000   -4.22049352791   -4.26789528527    2.00000000000
    -6.32080279923    0.00000000000    0.00567209089   -2.00000000000
     0.00000000000    6.32080279923    0.00567209089   -2.00000000000
     6.32080279923    0.00000000000    0.00567209089   -2.00000000000
     0.00000000000   -6.32080279923    0.00567209089   -2.00000000000
    -4.22049352791    4.22049352791   -2.15028985266   -2.00000000000
     4.22049352791    4.22049352791   -2.15028985266   -2.00000000000
     4.22049352791   -4.22049352791   -2.15028985266   -2.00000000000
    -4.22049352791   -4.22049352791   -2.15028985266   -2.00000000000
    -4.22049352791    2.11024676395   -4.26789528527   -2.00000000000
    -2.11024676395    4.22049352791   -4.26789528527   -2.00000000000
     2.11024676395    4.22049352791   -4.26789528527   -2.00000000000
     4.22049352791    2.11024676395   -4.26789528527   -2.00000000000
     4.22049352791   -2.11024676395   -4.26789528527   -2.00000000000
     2.11024676395   -4.22049352791   -4.26789528527   -2.00000000000
    -2.11024676395   -4.22049352791   -4.26789528527   -2.00000000000
    -4.22049352791   -2.11024676395   -4.26789528527   -2.00000000000
     0.00000000000    0.00000000000   -6.37814204923   -2.00000000000
    -6.32954443328    2.11144262254   -0.04367284424    2.00000000000
    -2.11144262254    6.32954443328   -0.04367284424    2.00000000000
     2.11144262254    6.32954443328   -0.04367284424    2.00000000000
     6.32954443328    2.11144262254   -0.04367284424    2.00000000000
     6.32954443328   -2.11144262254   -0.04367284424    2.00000000000
     2.11144262254   -6.32954443328   -0.04367284424    2.00000000000
    -2.11144262254   -6.32954443328   -0.04367284424    2.00000000000
    -6.32954443328   -2.11144262254   -0.04367284424    2.00000000000
    -6.33393418427    0.00000000000   -2.14155206950    2.00000000000
     0.00000000000    6.33393418427   -2.14155206950    2.00000000000
     6.33393418427    0.00000000000   -2.14155206950    2.00000000000
     0.00000000000   -6.33393418427   -2.14155206950    2.00000000000
    -2.11024676395    0.00000000000   -6.37814204923    2.00000000000
     0.00000000000    2.11024676395   -6.37814204923    2.00000000000
     2.11024676395    0.00000000000   -6.37814204923    2.00000000000
     0.00000000000   -2.11024676395   -6.37814204923    2.00000000000
    -6.33028254133    2.11070451449   -2.14923989662   -2.00000000000
    -2.11070451449    6.33028254133   -2.14923989662   -2.00000000000
     2.11070451449    6.33028254133   -2.14923989662   -2.00000000000
     6.33028254133    2.11070451449   -2.14923989662   -2.00000000000
     6.33028254133   -2.11070451449   -2.14923989662   -2.00000000000
     2.11070451449   -6.33028254133   -2.14923989662   -2.00000000000
    -2.11070451449   -6.33028254133   -2.14923989662   -2.00000000000
    -6.33028254133   -2.11070451449   -2.14923989662   -2.00000000000
    -2.11024676395    2.11024676395   -6.37814204923   -2.00000000000
     2.11024676395    2.11024676395   -6.37814204923   -2.00000000000
     2.11024676395   -2.11024676395   -6.37814204923   -2.00000000000
    -2.11024676395   -2.11024676395   -6.37814204923   -2.00000000000
    -4.22049352791    4.22049352791   -4.26789528527    2.00000000000
     4.22049352791    4.22049352791   -4.26789528527    2.00000000000
     4.22049352791   -4.22049352791   -4.26789528527    2.00000000000
    -4.22049352791   -4.22049352791   -4.26789528527    2.00000000000
    -6.32889565859    4.22049352791    0.00772802266   -2.00000000000
    -4.22049352791    6.32889565859    0.00772802266   -2.00000000000
     4.22049352791    6.32889565859    0.00772802266   -2.00000000000
     6.32889565859    4.22049352791    0.00772802266   -2.00000000000
     6.32889565859   -4.22049352791    0.00772802266   -2.00000000000
     4.22049352791   -6.32889565859    0.00772802266   -2.00000000000
    -4.22049352791   -6.32889565859    0.00772802266   -2.00000000000
    -6.32889565859   -4.22049352791    0.00772802266   -2.00000000000
    -6.33074029186    0.00000000000   -4.26789528527   -2.00000000000
     0.00000000000    6.33074029186   -4.26789528527   -2.00000000000
     6.33074029186    0.00000000000   -4.26789528527   -2.00000000000
     0.00000000000   -6.33074029186   -4.26789528527   -2.00000000000
    -4.22049352791    0.00000000000   -6.37814204923   -2.00000000000
     0.00000000000    4.22049352791   -6.37814204923   -2.00000000000
     4.22049352791    0.00000000000   -6.37814204923   -2.00000000000
     0.00000000000   -4.22049352791   -6.37814204923   -2.00000000000
    -6.33125293065    4.22049352791   -2.14445912302    2.00000000000
    -4.22049352791    6.33125293065   -2.14445912302    2.00000000000
     4.22049352791    6.33125293065   -2.14445912302    2.00000000000
     6.33125293065    4.22049352791   -2.14445912302    2.00000000000
     6.33125293065   -4.22049352791   -2.14445912302    2.00000000000
     4.22049352791   -6.33125293065   -2.14445912302    2.00000000000
    -4.22049352791   -6.33125293065   -2.14445912302    2.00000000000
    -6.33125293065   -4.22049352791   -2.14445912302    2.00000000000
    -6.33074029186    2.11024676395   -4.26789528527    2.00000000000
    -2.11024676395    6.33074029186   -4.26789528527    2.00000000000
     2.11024676395    6.33074029186   -4.26789528527    2.00000000000
     6.33074029186    2.11024676395   -4.26789528527    2.00000000000
     6.33074029186   -2.11024676395   -4.26789528527    2.00000000000
     2.11024676395   -6.33074029186   -4.26789528527    2.00000000000
    -2.11024676395   -6.33074029186   -4.26789528527    2.00000000000
    -6.33074029186   -2.11024676395   -4.26789528527    2.00000000000
    -4.22049352791    2.11024676395   -6.37814204923    2.00000000000
    -2.11024676395    4.22049352791   -6.37814204923    2.00000000000
     2.11024676395    4.22049352791   -6.37814204923    2.00000000000
     4.22049352791    2.11024676395   -6.37814204923    2.00000000000
     4.22049352791   -2.11024676395   -6.37814204923    2.00000000000
     2.11024676395   -4.22049352791   -6.37814204923    2.00000000000
    -2.11024676395   -4.22049352791   -6.37814204923    2.00000000000
    -4.22049352791   -2.11024676395   -6.37814204923    2.00000000000
    -8.44098705582    0.00000000000    0.00000000000    2.00000000000
     0.00000000000    8.44098705582    0.00000000000    2.00000000000
     8.44098705582    0.00000000000    0.00000000000    2.00000000000
     0.00000000000   -8.44098705582    0.00000000000    2.00000000000
    -8.44098705582    2.12018425659    0.00567209089   -2.00000000000
    -2.12018425659    8.44098705582    0.00567209089   -2.00000000000
     2.12018425659    8.44098705582    0.00567209089   -2.00000000000
     8.44098705582    2.12018425659    0.00567209089   -2.00000000000
     8.44098705582   -2.12018425659    0.00567209089   -2.00000000000
     2.12018425659   -8.44098705582    0.00567209089   -2.00000000000
    -2.12018425659   -8.44098705582    0.00567209089   -2.00000000000
    -8.44098705582   -2.12018425659    0.00567209089   -2.00000000000
    -8.44098705582    0.00000000000   -2.14129966123   -2.00000000000
     0.00000000000    8.44098705582   -2.14129966123   -2.00000000000
     8.44098705582    0.00000000000   -2.14129966123   -2.00000000000
     0.00000000000   -8.44098705582   -2.14129966123   -2.00000000000
    -6.33074029186    4.22049352791   -4.26789528527   -2.00000000000
    -4.22049352791    6.33074029186   -4.26789528527   -2.00000000000
     4.22049352791    6.33074029186   -4.26789528527   -2.00000000000
     6.33074029186    4.22049352791   -4.26789528527   -2.00000000000
     6.33074029186   -4.22049352791   -4.26789528527   -2.00000000000
     4.22049352791   -6.33074029186   -4.26789528527   -2.00000000000
    -4.22049352791   -6.33074029186   -4.26789528527   -2.00000000000
    -6.33074029186   -4.22049352791   -4.26789528527   -2.00000000000
    -4.22049352791    4.22049352791   -6.37814204923   -2.00000000000
     4.22049352791    4.22049352791   -6.37814204923   -2.00000000000
     4.22049352791   -4.22049352791   -6.37814204923   -2.00000000000
    -4.22049352791   -4.22049352791   -6.37814204923   -2.00000000000
    -6.32954443328    6.32954443328   -0.04367284424    2.00000000000
     6.32954443328    6.32954443328   -0.04367284424    2.00000000000
     6.32954443328   -6.32954443328   -0.04367284424    2.00000000000
    -6.32954443328   -6.32954443328   -0.04367284424    2.00000000000
    -8.44098705582    2.10705287155   -2.14155206950    2.00000000000
    -2.10705287155    8.44098705582   -2.14155206950    2.00000000000
     2.10705287155    8.44098705582   -2.14155206950    2.00000000000
     8.44098705582    2.10705287155   -2.14155206950    2.00000000000
     8.44098705582   -2.10705287155   -2.14155206950    2.00000000000
     2.10705287155   -8.44098705582   -2.14155206950    2.00000000000
    -2.10705287155   -8.44098705582   -2.14155206950    2.00000000000
    -8.44098705582   -2.10705287155   -2.14155206950    2.00000000000
    -6.33074029186    0.00000000000   -6.37814204923    2.00000000000
     0.00000000000    6.33074029186   -6.37814204923    2.00000000000
     6.33074029186    0.00000000000   -6.37814204923    2.00000000000
     0.00000000000   -6.33074029186   -6.37814204923    2.00000000000
    -6.33028254133    6.33028254133   -2.14923989662   -2.00000000000
     6.33028254133    6.33028254133   -2.14923989662   -2.00000000000
     6.33028254133   -6.33028254133   -2.14923989662   -2.00000000000
    -6.33028254133   -6.33028254133   -2.14923989662   -2.00000000000
    -6.33074029186    2.11024676395   -6.37814204923   -2.00000000000
    -2.11024676395    6.33074029186   -6.37814204923   -2.00000000000
     2.11024676395    6.33074029186   -6.37814204923   -2.00000000000
     6.33074029186    2.11024676395   -6.37814204923   -2.00000000000
     6.33074029186   -2.11024676395   -6.37814204923   -2.00000000000
     2.11024676395   -6.33074029186   -6.37814204923   -2.00000000000
    -2.11024676395   -6.33074029186   -6.37814204923   -2.00000000000
    -6.33074029186   -2.11024676395   -6.37814204923   -2.00000000000
    -8.44098705582    4.22049352791   -0.04269731856    2.00000000000
    -4.22049352791    8.44098705582   -0.04269731856    2.00000000000
     4.22049352791    8.44098705582   -0.04269731856    2.00000000000
     8.44098705582    4.22049352791   -0.04269731856    2.00000000000
     8.44098705582   -4.22049352791   -0.04269731856    2.00000000000
     4.22049352791   -8.44098705582   -0.04269731856    2.00000000000
    -4.22049352791   -8.44098705582   -0.04269731856    2.00000000000
    -8.44098705582   -4.22049352791   -0.04269731856    2.00000000000
    -8.44098705582    0.00000000000   -4.26789528527    2.00000000000
     0.00000000000    8.44098705582   -4.26789528527    2.00000000000
     8.44098705582    0.00000000000   -4.26789528527    2.00000000000
     0.00000000000   -8.44098705582   -4.26789528527    2.00000000000
    -8.44098705582    4.22049352791   -2.15129719490   -2.00000000000
    -4.22049352791    8.44098705582   -2.15129719490   -2.00000000000
     4.22049352791    8.44098705582   -2.15129719490   -2.00000000000
     8.44098705582    4.22049352791   -2.15129719490   -2.00000000000
     8.44098705582   -4.22049352791   -2.15129719490   -2.00000000000
     4.22049352791   -8.44098705582   -2.15129719490   -2.00000000000
    -4.22049352791   -8.44098705582   -2.15129719490   -2.00000000000
    -8.44098705582   -4.22049352791   -2.15129719490   -2.00000000000
    -8.44098705582    2.11024676395   -4.26789528527   -2.00000000000
    -2.11024676395    8.44098705582   -4.26789528527   -2.00000000000
     2.11024676395    8.44098705582   -4.26789528527   -2.00000000000
     8.44098705582    2.11024676395   -4.26789528527   -2.00000000000
     8.44098705582   -2.11024676395   -4.26789528527   -2.00000000000
     2.11024676395   -8.44098705582   -4.26789528527   -2.00000000000
    -2.11024676395   -8.44098705582   -4.26789528527   -2.00000000000
    -8.44098705582   -2.11024676395   -4.26789528527   -2.00000000000
    -6.33074029186    6.33074029186   -4.26789528527    2.00000000000
     6.33074029186    6.33074029186   -4.26789528527    2.00000000000
     6.33074029186   -6.33074029186   -4.26789528527    2.00000000000
    -6.33074029186   -6.33074029186   -4.26789528527    2.00000000000
    -6.33074029186    4.22049352791   -6.37814204923    2.00000000000
    -4.22049352791    6.33074029186   -6.37814204923    2.00000000000
     4.22049352791    6.33074029186   -6.37814204923    2.00000000000
     6.33074029186    4.22049352791   -6.37814204923    2.00000000000
     6.33074029186   -4.22049352791   -6.37814204923    2.00000000000
     4.22049352791   -6.33074029186   -6.37814204923    2.00000000000
    -4.22049352791   -6.33074029186   -6.37814204923    2.00000000000
    -6.33074029186   -4.22049352791   -6.37814204923    2.00000000000
    -8.44098705582    4.22049352791   -4.26789528527    2.00000000000
    -4.22049352791    8.44098705582   -4.26789528527    2.00000000000
     4.22049352791    8.44098705582   -4.26789528527    2.00000000000
     8.44098705582    4.22049352791   -4.26789528527    2.00000000000
     8.44098705582   -4.22049352791   -4.26789528527    2.00000000000
     4.22049352791   -8.44098705582   -4.26789528527    2.00000000000
    -4.22049352791   -8.44098705582   -4.26789528527    2.00000000000
    -8.44098705582   -4.22049352791   -4.26789528527    2.00000000000
    -8.44098705582    6.32080279923    0.00567209089   -2.00000000000
    -6.32080279923    8.44098705582    0.00567209089   -2.00000000000
     6.32080279923    8.44098705582    0.00567209089   -2.00000000000
     8.44098705582    6.32080279923    0.00567209089   -2.00000000000
     8.44098705582   -6.32080279923    0.00567209089   -2.00000000000
     6.32080279923   -8.44098705582    0.00567209089   -2.00000000000
    -6.32080279923   -8.44098705582    0.00567209089   -2.00000000000
    -8.44098705582   -6.32080279923    0.00567209089   -2.00000000000
   -10.56117131241    0.00000000000    0.00567209089   -2.00000000000
     0.00000000000   10.56117131241    0.00567209089   -2.00000000000
    10.56117131241    0.00000000000    0.00567209089   -2.00000000000
     0.00000000000  -10.56117131241    0.00567209089   -2.00000000000
    -8.44098705582    0.00000000000   -6.37814204923   -2.00000000000
     0.00000000000    8.44098705582   -6.37814204923   -2.00000000000
     8.44098705582    0.00000000000   -6.37814204923   -2.00000000000
     0.00000000000   -8.44098705582   -6.37814204923   -2.00000000000
   -10.55242967836    2.11144262254   -0.04367284424    2.00000000000
    -2.11144262254   10.55242967836   -0.04367284424    2.00000000000
     2.11144262254   10.55242967836   -0.04367284424    2.00000000000
    10.55242967836    2.11144262254   -0.04367284424    2.00000000000
    10.55242967836   -2.11144262254   -0.04367284424    2.00000000000
     2.11144262254  -10.55242967836   -0.04367284424    2.00000000000
    -2.11144262254  -10.55242967836   -0.04367284424    2.00000000000
   -10.55242967836   -2.11144262254   -0.04367284424    2.00000000000
   -10.54803992736    0.00000000000   -2.14155206950    2.00000000000
     0.00000000000   10.54803992736   -2.14155206950    2.00000000000
    10.54803992736    0.00000000000   -2.14155206950    2.00000000000
     0.00000000000  -10.54803992736   -2.14155206950    2.00000000000
    -8.44098705582    6.33393418427   -2.14155206950    2.00000000000
    -6.33393418427    8.44098705582   -2.14155206950    2.00000000000
     6.33393418427    8.44098705582   -2.14155206950    2.00000000000
     8.44098705582    6.33393418427   -2.14155206950    2.00000000000
     8.44098705582   -6.33393418427   -2.14155206950    2.00000000000
     6.33393418427   -8.44098705582   -2.14155206950    2.00000000000
    -6.33393418427   -8.44098705582   -2.14155206950    2.00000000000
    -8.44098705582   -6.33393418427   -2.14155206950    2.00000000000
    -8.44098705582    2.11024676395   -6.37814204923    2.00000000000
    -2.11024676395    8.44098705582   -6.37814204923    2.00000000000
     2.11024676395    8.44098705582   -6.37814204923    2.00000000000
     8.44098705582    2.11024676395   -6.37814204923    2.00000000000
     8.44098705582   -2.11024676395   -6.37814204923    2.00000000000
     2.11024676395   -8.44098705582   -6.37814204923    2.00000000000
    -2.11024676395   -8.44098705582   -6.37814204923    2.00000000000
    -8.44098705582   -2.11024676395   -6.37814204923    2.00000000000
   -10.55169157031    2.11070451449   -2.14923989662   -2.00000000000
    -2.11070451449   10.55169157031   -2.14923989662   -2.00000000000
     2.11070451449   10.55169157031   -2.14923989662   -2.00000000000
    10.55169157031    2.11070451449   -2.14923989662   -2.00000000000
    10.55169157031   -2.11070451449   -2.14923989662   -2.00000000000
     2.11070451449  -10.55169157031   -2.14923989662   -2.00000000000
    -2.11070451449  -10.55169157031   -2.14923989662   -2.00000000000
   -10.55169157031   -2.11070451449   -2.14923989662   -2.00000000000
    -6.33074029186    6.33074029186   -6.37814204923   -2.00000000000
     6.33074029186    6.33074029186   -6.37814204923   -2.00000000000
     6.33074029186   -6.33074029186   -6.37814204923   -2.00000000000
    -6.33074029186   -6.33074029186   -6.37814204923   -2.00000000000
   -10.55307845305    4.22049352791    0.00772802266   -2.00000000000
    -4.22049352791   10.55307845305    0.00772802266   -2.00000000000
     4.22049352791   10.55307845305    0.00772802266   -2.00000000000
    10.55307845305    4.22049352791    0.00772802266   -2.00000000000
    10.55307845305   -4.22049352791    0.00772802266   -2.00000000000
     4.22049352791  -10.55307845305    0.00772802266   -2.00000000000
    -4.22049352791  -10.55307845305    0.00772802266   -2.00000000000
   -10.55307845305   -4.22049352791    0.00772802266   -2.00000000000
   -10.55123381977    0.00000000000   -4.26789528527   -2.00000000000
    -8.44098705582    6.33074029186   -4.26789528527   -2.00000000000
    -6.33074029186    8.44098705582   -4.26789528527   -2.00000000000
     0.00000000000   10.55123381977   -4.26789528527   -2.00000000000
     6.33074029186    8.44098705582   -4.26789528527   -2.00000000000
     8.44098705582    6.33074029186   -4.26789528527   -2.00000000000
    10.55123381977    0.00000000000   -4.26789528527   -2.00000000000
     8.44098705582   -6.33074029186   -4.26789528527   -2.00000000000
     6.33074029186   -8.44098705582   -4.26789528527   -2.00000000000
     0.00000000000  -10.55123381977   -4.26789528527   -2.00000000000
    -6.33074029186   -8.44098705582   -4.26789528527   -2.00000000000
    -8.44098705582   -6.33074029186   -4.26789528527   -2.00000000000
    -8.44098705582    4.22049352791   -6.37814204923   -2.00000000000
    -4.22049352791    8.44098705582   -6.37814204923   -2.00000000000
     4.22049352791    8.44098705582   -6.37814204923   -2.00000000000
     8.44098705582    4.22049352791   -6.37814204923   -2.00000000000
     8.44098705582   -4.22049352791   -6.37814204923   -2.00000000000
     4.22049352791   -8.44098705582   -6.37814204923   -2.00000000000
    -4.22049352791   -8.44098705582   -6.37814204923   -2.00000000000
    -8.44098705582   -4.22049352791   -6.37814204923   -2.00000000000
   -10.55072118099    4.22049352791   -2.14445912302    2.00000000000
    -4.22049352791   10.55072118099   -2.14445912302    2.00000000000
     4.22049352791   10.55072118099   -2.14445912302    2.00000000000
    10.55072118099    4.22049352791   -2.14445912302    2.00000000000
    10.55072118099   -4.22049352791   -2.14445912302    2.00000000000
     4.22049352791  -10.55072118099   -2.14445912302    2.00000000000
    -4.22049352791  -10.55072118099   -2.14445912302    2.00000000000
   -10.55072118099   -4.22049352791   -2.14445912302    2.00000000000
   -10.55123381977    2.11024676395   -4.26789528527    2.00000000000
    -2.11024676395   10.55123381977   -4.26789528527    2.00000000000
     2.11024676395   10.55123381977   -4.26789528527    2.00000000000
    10.55123381977    2.11024676395   -4.26789528527    2.00000000000
    10.55123381977   -2.11024676395   -4.26789528527    2.00000000000
     2.11024676395  -10.55123381977   -4.26789528527    2.00000000000
    -2.11024676395  -10.55123381977   -4.26789528527    2.00000000000
   -10.55123381977   -2.11024676395   -4.26789528527    2.00000000000
    -8.44098705582    8.44098705582    0.00000000000    2.00000000000
     8.44098705582    8.44098705582    0.00000000000    2.00000000000
     8.44098705582   -8.44098705582    0.00000000000    2.00000000000
    -8.44098705582   -8.44098705582    0.00000000000    2.00000000000
    -8.44098705582    8.44098705582   -2.14129966123   -2.00000000000
     8.44098705582    8.44098705582   -2.14129966123   -2.00000000000
     8.44098705582   -8.44098705582   -2.14129966123   -2.00000000000
    -8.44098705582   -8.44098705582   -2.14129966123   -2.00000000000
   -10.55123381977    4.22049352791   -4.26789528527   -2.00000000000
    -4.22049352791   10.55123381977   -4.26789528527   -2.00000000000
     4.22049352791   10.55123381977   -4.26789528527   -2.00000000000
    10.55123381977    4.22049352791   -4.26789528527   -2.00000000000
    10.55123381977   -4.22049352791   -4.26789528527   -2.00000000000
     4.22049352791  -10.55123381977   -4.26789528527   -2.00000000000
    -4.22049352791  -10.55123381977   -4.26789528527   -2.00000000000
   -10.55123381977   -4.22049352791   -4.26789528527   -2.00000000000
   -10.55242967836    6.32954443328   -0.04367284424    2.00000000000
    -6.32954443328   10.55242967836   -0.04367284424    2.00000000000
     6.32954443328   10.55242967836   -0.04367284424    2.00000000000
    10.55242967836    6.32954443328   -0.04367284424    2.00000000000
    10.55242967836   -6.32954443328   -0.04367284424    2.00000000000
     6.32954443328  -10.55242967836   -0.04367284424    2.00000000000
    -6.32954443328  -10.55242967836   -0.04367284424    2.00000000000
   -10.55242967836   -6.32954443328   -0.04367284424    2.00000000000
   -10.55123381977    0.00000000000   -6.37814204923    2.00000000000
    -8.44098705582    6.33074029186   -6.37814204923    2.00000000000
    -6.33074029186    8.44098705582   -6.37814204923    2.00000000000
     0.00000000000   10.55123381977   -6.37814204923    2.00000000000
     6.33074029186    8.44098705582   -6.37814204923    2.00000000000
     8.44098705582    6.33074029186   -6.37814204923    2.00000000000
    10.55123381977    0.00000000000   -6.37814204923    2.00000000000
     8.44098705582   -6.33074029186   -6.37814204923    2.00000000000
     6.33074029186   -8.44098705582   -6.37814204923    2.00000000000
     0.00000000000  -10.55123381977   -6.37814204923    2.00000000000
    -6.33074029186   -8.44098705582   -6.37814204923    2.00000000000
    -8.44098705582   -6.33074029186   -6.37814204923    2.00000000000
   -10.55169157031    6.33028254133   -2.14923989662   -2.00000000000
    -6.33028254133   10.55169157031   -2.14923989662   -2.00000000000
     6.33028254133   10.55169157031   -2.14923989662   -2.00000000000
    10.55169157031    6.33028254133   -2.14923989662   -2.00000000000
    10.55169157031   -6.33028254133   -2.14923989662   -2.00000000000
     6.33028254133  -10.55169157031   -2.14923989662   -2.00000000000
    -6.33028254133  -10.55169157031   -2.14923989662   -2.00000000000
   -10.55169157031   -6.33028254133   -2.14923989662   -2.00000000000
   -10.55123381977    2.11024676395   -6.37814204923   -2.00000000000
    -2.11024676395   10.55123381977   -6.37814204923   -2.00000000000
     2.11024676395   10.55123381977   -6.37814204923   -2.00000000000
    10.55123381977    2.11024676395   -6.37814204923   -2.00000000000
    10.55123381977   -2.11024676395   -6.37814204923   -2.00000000000
     2.11024676395  -10.55123381977   -6.37814204923   -2.00000000000
    -2.11024676395  -10.55123381977   -6.37814204923   -2.00000000000
   -10.55123381977   -2.11024676395   -6.37814204923   -2.00000000000
   -12.66148058373    0.00000000000   -0.04269731856    2.00000000000
     0.00000000000   12.66148058373   -0.04269731856    2.00000000000
    12.66148058373    0.00000000000   -0.04269731856    2.00000000000
     0.00000000000  -12.66148058373   -0.04269731856    2.00000000000
    -8.44098705582    8.44098705582   -4.26789528527    2.00000000000
     8.44098705582    8.44098705582   -4.26789528527    2.00000000000
     8.44098705582   -8.44098705582   -4.26789528527    2.00000000000
    -8.44098705582   -8.44098705582   -4.26789528527    2.00000000000
   -12.66148058373    2.11209139723    0.00772802266   -2.00000000000
    -2.11209139723   12.66148058373    0.00772802266   -2.00000000000
     2.11209139723   12.66148058373    0.00772802266   -2.00000000000
    12.66148058373    2.11209139723    0.00772802266   -2.00000000000
    12.66148058373   -2.11209139723    0.00772802266   -2.00000000000
     2.11209139723  -12.66148058373    0.00772802266   -2.00000000000
    -2.11209139723  -12.66148058373    0.00772802266   -2.00000000000
   -12.66148058373   -2.11209139723    0.00772802266   -2.00000000000
   -12.66148058373    0.00000000000   -2.15129719490   -2.00000000000
     0.00000000000   12.66148058373   -2.15129719490   -2.00000000000
    12.66148058373    0.00000000000   -2.15129719490   -2.00000000000
     0.00000000000  -12.66148058373   -2.15129719490   -2.00000000000
   -12.66148058373    2.10973412517   -2.14445912302    2.00000000000
    -2.10973412517   12.66148058373   -2.14445912302    2.00000000000
     2.10973412517   12.66148058373   -2.14445912302    2.00000000000
    12.66148058373    2.10973412517   -2.14445912302    2.00000000000
    12.66148058373   -2.10973412517   -2.14445912302    2.00000000000
     2.10973412517  -12.66148058373   -2.14445912302    2.00000000000
    -2.10973412517  -12.66148058373   -2.14445912302    2.00000000000
   -12.66148058373   -2.10973412517   -2.14445912302    2.00000000000
   -10.55123381977    6.33074029186   -4.26789528527    2.00000000000
    -6.33074029186   10.55123381977   -4.26789528527    2.00000000000
     6.33074029186   10.55123381977   -4.26789528527    2.00000000000
    10.55123381977    6.33074029186   -4.26789528527    2.00000000000
    10.55123381977   -6.33074029186   -4.26789528527    2.00000000000
     6.33074029186  -10.55123381977   -4.26789528527    2.00000000000
    -6.33074029186  -10.55123381977   -4.26789528527    2.00000000000
   -10.55123381977   -6.33074029186   -4.26789528527    2.00000000000
   -10.55123381977    4.22049352791   -6.37814204923    2.00000000000
    -4.22049352791   10.55123381977   -6.37814204923    2.00000000000
     4.22049352791   10.55123381977   -6.37814204923    2.00000000000
    10.55123381977    4.22049352791   -6.37814204923    2.00000000000
    10.55123381977   -4.22049352791   -6.37814204923    2.00000000000
     4.22049352791  -10.55123381977   -6.37814204923    2.00000000000
    -4.22049352791  -10.55123381977   -6.37814204923    2.00000000000
   -10.55123381977   -4.22049352791   -6.37814204923    2.00000000000
   -12.66148058373    4.22049352791   -0.03992370948    2.00000000000
    -4.22049352791   12.66148058373   -0.03992370948    2.00000000000
     4.22049352791   12.66148058373   -0.03992370948    2.00000000000
    12.66148058373    4.22049352791   -0.03992370948    2.00000000000
    12.66148058373   -4.22049352791   -0.03992370948    2.00000000000
     4.22049352791  -12.66148058373   -0.03992370948    2.00000000000
    -4.22049352791  -12.66148058373   -0.03992370948    2.00000000000
   -12.66148058373   -4.22049352791   -0.03992370948    2.00000000000
   -12.66148058373    0.00000000000   -4.26789528527    2.00000000000
     0.00000000000   12.66148058373   -4.26789528527    2.00000000000
    12.66148058373    0.00000000000   -4.26789528527    2.00000000000
     0.00000000000  -12.66148058373   -4.26789528527    2.00000000000
   -12.66148058373    4.22049352791   -2.15028985266   -2.00000000000
    -4.22049352791   12.66148058373   -2.15028985266   -2.00000000000
     4.22049352791   12.66148058373   -2.15028985266   -2.00000000000
    12.66148058373    4.22049352791   -2.15028985266   -2.00000000000
    12.66148058373   -4.22049352791   -2.15028985266   -2.00000000000
     4.22049352791  -12.66148058373   -2.15028985266   -2.00000000000
    -4.22049352791  -12.66148058373   -2.15028985266   -2.00000000000
   -12.66148058373   -4.22049352791   -2.15028985266   -2.00000000000
   -10.56117131241    8.44098705582    0.00567209089   -2.00000000000
    -8.44098705582   10.56117131241    0.00567209089   -2.00000000000
     8.44098705582   10.56117131241    0.00567209089   -2.00000000000
    10.56117131241    8.44098705582    0.00567209089   -2.00000000000
    10.56117131241   -8.44098705582    0.00567209089   -2.00000000000
     8.44098705582  -10.56117131241    0.00567209089   -2.00000000000
    -8.44098705582  -10.56117131241    0.00567209089   -2.00000000000
   -10.56117131241   -8.44098705582    0.00567209089   -2.00000000000
   -12.66148058373    2.11024676395   -4.26789528527   -2.00000000000
    -2.11024676395   12.66148058373   -4.26789528527   -2.00000000000
     2.11024676395   12.66148058373   -4.26789528527   -2.00000000000
    12.66148058373    2.11024676395   -4.26789528527   -2.00000000000
    12.66148058373   -2.11024676395   -4.26789528527   -2.00000000000
     2.11024676395  -12.66148058373   -4.26789528527   -2.00000000000
    -2.11024676395  -12.66148058373   -4.26789528527   -2.00000000000
   -12.66148058373   -2.11024676395   -4.26789528527   -2.00000000000
    -8.44098705582    8.44098705582   -6.37814204923   -2.00000000000
     8.44098705582    8.44098705582   -6.37814204923   -2.00000000000
     8.44098705582   -8.44098705582   -6.37814204923   -2.00000000000
    -8.44098705582   -8.44098705582   -6.37814204923   -2.00000000000
   -10.54803992736    8.44098705582   -2.14155206950    2.00000000000
    -8.44098705582   10.54803992736   -2.14155206950    2.00000000000
     8.44098705582   10.54803992736   -2.14155206950    2.00000000000
    10.54803992736    8.44098705582   -2.14155206950    2.00000000000
    10.54803992736   -8.44098705582   -2.14155206950    2.00000000000
     8.44098705582  -10.54803992736   -2.14155206950    2.00000000000
    -8.44098705582  -10.54803992736   -2.14155206950    2.00000000000
   -10.54803992736   -8.44098705582   -2.14155206950    2.00000000000
   -10.55123381977    6.33074029186   -6.37814204923   -2.00000000000
    -6.33074029186   10.55123381977   -6.37814204923   -2.00000000000
     6.33074029186   10.55123381977   -6.37814204923   -2.00000000000
    10.55123381977    6.33074029186   -6.37814204923   -2.00000000000
    10.55123381977   -6.33074029186   -6.37814204923   -2.00000000000
     6.33074029186  -10.55123381977   -6.37814204923   -2.00000000000
    -6.33074029186  -10.55123381977   -6.37814204923   -2.00000000000
   -10.55123381977   -6.33074029186   -6.37814204923   -2.00000000000
   -12.66148058373    4.22049352791   -4.26789528527    2.00000000000
    -4.22049352791   12.66148058373   -4.26789528527    2.00000000000
     4.22049352791   12.66148058373   -4.26789528527    2.00000000000
    12.66148058373    4.22049352791   -4.26789528527    2.00000000000
    12.66148058373   -4.22049352791   -4.26789528527    2.00000000000
     4.22049352791  -12.66148058373   -4.26789528527    2.00000000000
    -4.22049352791  -12.66148058373   -4.26789528527    2.00000000000
   -12.66148058373   -4.22049352791   -4.26789528527    2.00000000000
   -12.66148058373    6.32889565859    0.00772802266   -2.00000000000
    -6.32889565859   12.66148058373    0.00772802266   -2.00000000000
     6.32889565859   12.66148058373    0.00772802266   -2.00000000000
    12.66148058373    6.32889565859    0.00772802266   -2.00000000000
    12.66148058373   -6.32889565859    0.00772802266   -2.00000000000
     6.32889565859  -12.66148058373    0.00772802266   -2.00000000000
    -6.32889565859  -12.66148058373    0.00772802266   -2.00000000000
   -12.66148058373   -6.32889565859    0.00772802266   -2.00000000000
   -10.55123381977    8.44098705582   -4.26789528527   -2.00000000000
    -8.44098705582   10.55123381977   -4.26789528527   -2.00000000000
     8.44098705582   10.55123381977   -4.26789528527   -2.00000000000
    10.55123381977    8.44098705582   -4.26789528527   -2.00000000000
    10.55123381977   -8.44098705582   -4.26789528527   -2.00000000000
     8.44098705582  -10.55123381977   -4.26789528527   -2.00000000000
    -8.44098705582  -10.55123381977   -4.26789528527   -2.00000000000
   -10.55123381977   -8.44098705582   -4.26789528527   -2.00000000000
   -12.66148058373    0.00000000000   -6.37814204923   -2.00000000000
     0.00000000000   12.66148058373   -6.37814204923   -2.00000000000
    12.66148058373    0.00000000000   -6.37814204923   -2.00000000000
     0.00000000000  -12.66148058373   -6.37814204923   -2.00000000000
   -12.66148058373    6.33125293065   -2.14445912302    2.00000000000
    -6.33125293065   12.66148058373   -2.14445912302    2.00000000000
     6.33125293065   12.66148058373   -2.14445912302    2.00000000000
    12.66148058373    6.33125293065   -2.14445912302    2.00000000000
    12.66148058373   -6.33125293065   -2.14445912302    2.00000000000
     6.33125293065  -12.66148058373   -2.14445912302    2.00000000000
    -6.33125293065  -12.66148058373   -2.14445912302    2.00000000000
   -12.66148058373   -6.33125293065   -2.14445912302    2.00000000000
   -12.66148058373    2.11024676395   -6.37814204923    2.00000000000
    -2.11024676395   12.66148058373   -6.37814204923    2.00000000000
     2.11024676395   12.66148058373   -6.37814204923    2.00000000000
    12.66148058373    2.11024676395   -6.37814204923    2.00000000000
    12.66148058373   -2.11024676395   -6.37814204923    2.00000000000
     2.11024676395  -12.66148058373   -6.37814204923    2.00000000000
    -2.11024676395  -12.66148058373   -6.37814204923    2.00000000000
   -12.66148058373   -2.11024676395   -6.37814204923    2.00000000000
   -14.76178985505    0.00000000000    0.00567209089   -2.00000000000
     0.00000000000   14.76178985505    0.00567209089   -2.00000000000
    14.76178985505    0.00000000000    0.00567209089   -2.00000000000
     0.00000000000  -14.76178985505    0.00567209089   -2.00000000000
   -12.66148058373    6.33074029186   -4.26789528527   -2.00000000000
    -6.33074029186   12.66148058373   -4.26789528527   -2.00000000000
     6.33074029186   12.66148058373   -4.26789528527   -2.00000000000
    12.66148058373    6.33074029186   -4.26789528527   -2.00000000000
    12.66148058373   -6.33074029186   -4.26789528527   -2.00000000000
     6.33074029186  -12.66148058373   -4.26789528527   -2.00000000000
    -6.33074029186  -12.66148058373   -4.26789528527   -2.00000000000
   -12.66148058373   -6.33074029186   -4.26789528527   -2.00000000000
   -12.66148058373    4.22049352791   -6.37814204923   -2.00000000000
    -4.22049352791   12.66148058373   -6.37814204923   -2.00000000000
     4.22049352791   12.66148058373   -6.37814204923   -2.00000000000
    12.66148058373    4.22049352791   -6.37814204923   -2.00000000000
    12.66148058373   -4.22049352791   -6.37814204923   -2.00000000000
     4.22049352791  -12.66148058373   -6.37814204923   -2.00000000000
    -4.22049352791  -12.66148058373   -6.37814204923   -2.00000000000
   -12.66148058373   -4.22049352791   -6.37814204923   -2.00000000000
   -14.77053148910    2.11144262254   -0.04367284424    2.00000000000
    -2.11144262254   14.77053148910   -0.04367284424    2.00000000000
     2.11144262254   14.77053148910   -0.04367284424    2.00000000000
    14.77053148910    2.11144262254   -0.04367284424    2.00000000000
    14.77053148910   -2.11144262254   -0.04367284424    2.00000000000
     2.11144262254  -14.77053148910   -0.04367284424    2.00000000000
    -2.11144262254  -14.77053148910   -0.04367284424    2.00000000000
   -14.77053148910   -2.11144262254   -0.04367284424    2.00000000000
   -10.55242967836   10.55242967836   -0.04367284424    2.00000000000
    10.55242967836   10.55242967836   -0.04367284424    2.00000000000
    10.55242967836  -10.55242967836   -0.04367284424    2.00000000000
   -10.55242967836  -10.55242967836   -0.04367284424    2.00000000000
   -14.77492124009    0.00000000000   -2.14155206950    2.00000000000
     0.00000000000   14.77492124009   -2.14155206950    2.00000000000
    14.77492124009    0.00000000000   -2.14155206950    2.00000000000
     0.00000000000  -14.77492124009   -2.14155206950    2.00000000000
   -10.55123381977    8.44098705582   -6.37814204923    2.00000000000
    -8.44098705582   10.55123381977   -6.37814204923    2.00000000000
     8.44098705582   10.55123381977   -6.37814204923    2.00000000000
    10.55123381977    8.44098705582   -6.37814204923    2.00000000000
    10.55123381977   -8.44098705582   -6.37814204923    2.00000000000
     8.44098705582  -10.55123381977   -6.37814204923    2.00000000000
    -8.44098705582  -10.55123381977   -6.37814204923    2.00000000000
   -10.55123381977   -8.44098705582   -6.37814204923    2.00000000000
   -14.77126959714    2.11070451449   -2.14923989662   -2.00000000000
    -2.11070451449   14.77126959714   -2.14923989662   -2.00000000000
     2.11070451449   14.77126959714   -2.14923989662   -2.00000000000
    14.77126959714    2.11070451449   -2.14923989662   -2.00000000000
    14.77126959714   -2.11070451449   -2.14923989662   -2.00000000000
     2.11070451449  -14.77126959714   -2.14923989662   -2.00000000000
    -2.11070451449  -14.77126959714   -2.14923989662   -2.00000000000
   -14.77126959714   -2.11070451449   -2.14923989662   -2.00000000000
   -10.55169157031   10.55169157031   -2.14923989662   -2.00000000000
    10.55169157031   10.55169157031   -2.14923989662   -2.00000000000
    10.55169157031  -10.55169157031   -2.14923989662   -2.00000000000
   -10.55169157031  -10.55169157031   -2.14923989662   -2.00000000000
   -12.66148058373    8.44098705582   -0.04269731856    2.00000000000
    -8.44098705582   12.66148058373   -0.04269731856    2.00000000000
     8.44098705582   12.66148058373   -0.04269731856    2.00000000000
    12.66148058373    8.44098705582   -0.04269731856    2.00000000000
    12.66148058373   -8.44098705582   -0.04269731856    2.00000000000
     8.44098705582  -12.66148058373   -0.04269731856    2.00000000000
    -8.44098705582  -12.66148058373   -0.04269731856    2.00000000000
   -12.66148058373   -8.44098705582   -0.04269731856    2.00000000000
   -14.76988271440    4.22049352791    0.00772802266   -2.00000000000
    -4.22049352791   14.76988271440    0.00772802266   -2.00000000000
     4.22049352791   14.76988271440    0.00772802266   -2.00000000000
    14.76988271440    4.22049352791    0.00772802266   -2.00000000000
    14.76988271440   -4.22049352791    0.00772802266   -2.00000000000
     4.22049352791  -14.76988271440    0.00772802266   -2.00000000000
    -4.22049352791  -14.76988271440    0.00772802266   -2.00000000000
   -14.76988271440   -4.22049352791    0.00772802266   -2.00000000000
   -12.66148058373    8.44098705582   -2.15129719490   -2.00000000000
    -8.44098705582   12.66148058373   -2.15129719490   -2.00000000000
     8.44098705582   12.66148058373   -2.15129719490   -2.00000000000
    12.66148058373    8.44098705582   -2.15129719490   -2.00000000000
    12.66148058373   -8.44098705582   -2.15129719490   -2.00000000000
     8.44098705582  -12.66148058373   -2.15129719490   -2.00000000000
    -8.44098705582  -12.66148058373   -2.15129719490   -2.00000000000
   -12.66148058373   -8.44098705582   -2.15129719490   -2.00000000000
   -14.77172734768    0.00000000000   -4.26789528527   -2.00000000000
     0.00000000000   14.77172734768   -4.26789528527   -2.00000000000
    14.77172734768    0.00000000000   -4.26789528527   -2.00000000000
     0.00000000000  -14.77172734768   -4.26789528527   -2.00000000000
   -14.77223998647    4.22049352791   -2.14445912302    2.00000000000
    -4.22049352791   14.77223998647   -2.14445912302    2.00000000000
     4.22049352791   14.77223998647   -2.14445912302    2.00000000000
    14.77223998647    4.22049352791   -2.14445912302    2.00000000000
    14.77223998647   -4.22049352791   -2.14445912302    2.00000000000
     4.22049352791  -14.77223998647   -2.14445912302    2.00000000000
    -4.22049352791  -14.77223998647   -2.14445912302    2.00000000000
   -14.77223998647   -4.22049352791   -2.14445912302    2.00000000000
   -14.77172734768    2.11024676395   -4.26789528527    2.00000000000
   -10.55123381977   10.55123381977   -4.26789528527    2.00000000000
    -2.11024676395   14.77172734768   -4.26789528527    2.00000000000
     2.11024676395   14.77172734768   -4.26789528527    2.00000000000
    10.55123381977   10.55123381977   -4.26789528527    2.00000000000
    14.77172734768    2.11024676395   -4.26789528527    2.00000000000
    14.77172734768   -2.11024676395   -4.26789528527    2.00000000000
    10.55123381977  -10.55123381977   -4.26789528527    2.00000000000
     2.11024676395  -14.77172734768   -4.26789528527    2.00000000000
    -2.11024676395  -14.77172734768   -4.26789528527    2.00000000000
   -10.55123381977  -10.55123381977   -4.26789528527    2.00000000000
   -14.77172734768   -2.11024676395   -4.26789528527    2.00000000000
   -12.66148058373    6.33074029186   -6.37814204923    2.00000000000
    -6.33074029186   12.66148058373   -6.37814204923    2.00000000000
     6.33074029186   12.66148058373   -6.37814204923    2.00000000000
    12.66148058373    6.33074029186   -6.37814204923    2.00000000000
    12.66148058373   -6.33074029186   -6.37814204923    2.00000000000
     6.33074029186  -12.66148058373   -6.37814204923    2.00000000000
    -6.33074029186  -12.66148058373   -6.37814204923    2.00000000000
   -12.66148058373   -6.33074029186   -6.37814204923    2.00000000000
   -12.66148058373    8.44098705582   -4.26789528527    2.00000000000
    -8.44098705582   12.66148058373   -4.26789528527    2.00000000000
     8.44098705582   12.66148058373   -4.26789528527    2.00000000000
    12.66148058373    8.44098705582   -4.26789528527    2.00000000000
    12.66148058373   -8.44098705582   -4.26789528527    2.00000000000
     8.44098705582  -12.66148058373   -4.26789528527    2.00000000000
    -8.44098705582  -12.66148058373   -4.26789528527    2.00000000000
   -12.66148058373   -8.44098705582   -4.26789528527    2.00000000000
   -14.77172734768    4.22049352791   -4.26789528527   -2.00000000000
    -4.22049352791   14.77172734768   -4.26789528527   -2.00000000000
     4.22049352791   14.77172734768   -4.26789528527   -2.00000000000
    14.77172734768    4.22049352791   -4.26789528527   -2.00000000000
    14.77172734768   -4.22049352791   -4.26789528527   -2.00000000000
     4.22049352791  -14.77172734768   -4.26789528527   -2.00000000000
    -4.22049352791  -14.77172734768   -4.26789528527   -2.00000000000
   -14.77172734768   -4.22049352791   -4.26789528527   -2.00000000000
   -14.77053148910    6.32954443328   -0.04367284424    2.00000000000
    -6.32954443328   14.77053148910   -0.04367284424    2.00000000000
     6.32954443328   14.77053148910   -0.04367284424    2.00000000000
    14.77053148910    6.32954443328   -0.04367284424    2.00000000000
    14.77053148910   -6.32954443328   -0.04367284424    2.00000000000
     6.32954443328  -14.77053148910   -0.04367284424    2.00000000000
    -6.32954443328  -14.77053148910   -0.04367284424    2.00000000000
   -14.77053148910   -6.32954443328   -0.04367284424    2.00000000000
   -14.77172734768    0.00000000000   -6.37814204923    2.00000000000
     0.00000000000   14.77172734768   -6.37814204923    2.00000000000
    14.77172734768    0.00000000000   -6.37814204923    2.00000000000
     0.00000000000  -14.77172734768   -6.37814204923    2.00000000000
   -14.77126959714    6.33028254133   -2.14923989662   -2.00000000000
    -6.33028254133   14.77126959714   -2.14923989662   -2.00000000000
     6.33028254133   14.77126959714   -2.14923989662   -2.00000000000
    14.77126959714    6.33028254133   -2.14923989662   -2.00000000000
    14.77126959714   -6.33028254133   -2.14923989662   -2.00000000000
     6.33028254133  -14.77126959714   -2.14923989662   -2.00000000000
    -6.33028254133  -14.77126959714   -2.14923989662   -2.00000000000
   -14.77126959714   -6.33028254133   -2.14923989662   -2.00000000000
   -14.77172734768    2.11024676395   -6.37814204923   -2.00000000000
   -10.55123381977   10.55123381977   -6.37814204923   -2.00000000000
    -2.11024676395   14.77172734768   -6.37814204923   -2.00000000000
     2.11024676395   14.77172734768   -6.37814204923   -2.00000000000
    10.55123381977   10.55123381977   -6.37814204923   -2.00000000000
    14.77172734768    2.11024676395   -6.37814204923   -2.00000000000
    14.77172734768   -2.11024676395   -6.37814204923   -2.00000000000
    10.55123381977  -10.55123381977   -6.37814204923   -2.00000000000
     2.11024676395  -14.77172734768   -6.37814204923   -2.00000000000
    -2.11024676395  -14.77172734768   -6.37814204923   -2.00000000000
   -10.55123381977  -10.55123381977   -6.37814204923   -2.00000000000
   -14.77172734768   -2.11024676395   -6.37814204923   -2.00000000000
   -12.66148058373   10.55307845305    0.00772802266   -2.00000000000
   -10.55307845305   12.66148058373    0.00772802266   -2.00000000000
    10.55307845305   12.66148058373    0.00772802266   -2.00000000000
    12.66148058373   10.55307845305    0.00772802266   -2.00000000000
    12.66148058373  -10.55307845305    0.00772802266   -2.00000000000
    10.55307845305  -12.66148058373    0.00772802266   -2.00000000000
   -10.55307845305  -12.66148058373    0.00772802266   -2.00000000000
   -12.66148058373  -10.55307845305    0.00772802266   -2.00000000000
   -12.66148058373    8.44098705582   -6.37814204923   -2.00000000000
    -8.44098705582   12.66148058373   -6.37814204923   -2.00000000000
     8.44098705582   12.66148058373   -6.37814204923   -2.00000000000
    12.66148058373    8.44098705582   -6.37814204923   -2.00000000000
    12.66148058373   -8.44098705582   -6.37814204923   -2.00000000000
     8.44098705582  -12.66148058373   -6.37814204923   -2.00000000000
    -8.44098705582  -12.66148058373   -6.37814204923   -2.00000000000
   -12.66148058373   -8.44098705582   -6.37814204923   -2.00000000000
   -12.66148058373   10.55072118099   -2.14445912302    2.00000000000
   -10.55072118099   12.66148058373   -2.14445912302    2.00000000000
    10.55072118099   12.66148058373   -2.14445912302    2.00000000000
    12.66148058373   10.55072118099   -2.14445912302    2.00000000000
    12.66148058373  -10.55072118099   -2.14445912302    2.00000000000
    10.55072118099  -12.66148058373   -2.14445912302    2.00000000000
   -10.55072118099  -12.66148058373   -2.14445912302    2.00000000000
   -12.66148058373  -10.55072118099   -2.14445912302    2.00000000000
   -14.77172734768    6.33074029186   -4.26789528527    2.00000000000
    -6.33074029186   14.77172734768   -4.26789528527    2.00000000000
     6.33074029186   14.77172734768   -4.26789528527    2.00000000000
    14.77172734768    6.33074029186   -4.26789528527    2.00000000000
    14.77172734768   -6.33074029186   -4.26789528527    2.00000000000
     6.33074029186  -14.77172734768   -4.26789528527    2.00000000000
    -6.33074029186  -14.77172734768   -4.26789528527    2.00000000000
   -14.77172734768   -6.33074029186   -4.26789528527    2.00000000000
   -14.77172734768    4.22049352791   -6.37814204923    2.00000000000
    -4.22049352791   14.77172734768   -6.37814204923    2.00000000000
     4.22049352791   14.77172734768   -6.37814204923    2.00000000000
    14.77172734768    4.22049352791   -6.37814204923    2.00000000000
    14.77172734768   -4.22049352791   -6.37814204923    2.00000000000
     4.22049352791  -14.77172734768   -6.37814204923    2.00000000000
    -4.22049352791  -14.77172734768   -6.37814204923    2.00000000000
   -14.77172734768   -4.22049352791   -6.37814204923    2.00000000000
   -16.88197411163    0.00000000000    0.00000000000    2.00000000000
     0.00000000000   16.88197411163    0.00000000000    2.00000000000
    16.88197411163    0.00000000000    0.00000000000    2.00000000000
     0.00000000000  -16.88197411163    0.00000000000    2.00000000000
   -14.76178985505    8.44098705582    0.00567209089   -2.00000000000
    -8.44098705582   14.76178985505    0.00567209089   -2.00000000000
     8.44098705582   14.76178985505    0.00567209089   -2.00000000000
    14.76178985505    8.44098705582    0.00567209089   -2.00000000000
    14.76178985505   -8.44098705582    0.00567209089   -2.00000000000
     8.44098705582  -14.76178985505    0.00567209089   -2.00000000000
    -8.44098705582  -14.76178985505    0.00567209089   -2.00000000000
   -14.76178985505   -8.44098705582    0.00567209089   -2.00000000000
   -16.88197411163    2.12018425659    0.00567209089   -2.00000000000
    -2.12018425659   16.88197411163    0.00567209089   -2.00000000000
     2.12018425659   16.88197411163    0.00567209089   -2.00000000000
    16.88197411163    2.12018425659    0.00567209089   -2.00000000000
    16.88197411163   -2.12018425659    0.00567209089   -2.00000000000
     2.12018425659  -16.88197411163    0.00567209089   -2.00000000000
    -2.12018425659  -16.88197411163    0.00567209089   -2.00000000000
   -16.88197411163   -2.12018425659    0.00567209089   -2.00000000000
   -16.88197411163    0.00000000000   -2.14129966123   -2.00000000000
     0.00000000000   16.88197411163   -2.14129966123   -2.00000000000
    16.88197411163    0.00000000000   -2.14129966123   -2.00000000000
     0.00000000000  -16.88197411163   -2.14129966123   -2.00000000000
   -12.66148058373   10.55123381977   -4.26789528527   -2.00000000000
   -10.55123381977   12.66148058373   -4.26789528527   -2.00000000000
    10.55123381977   12.66148058373   -4.26789528527   -2.00000000000
    12.66148058373   10.55123381977   -4.26789528527   -2.00000000000
    12.66148058373  -10.55123381977   -4.26789528527   -2.00000000000
    10.55123381977  -12.66148058373   -4.26789528527   -2.00000000000
   -10.55123381977  -12.66148058373   -4.26789528527   -2.00000000000
   -12.66148058373  -10.55123381977   -4.26789528527   -2.00000000000
   -16.88197411163    2.10705287155   -2.14155206950    2.00000000000
    -2.10705287155   16.88197411163   -2.14155206950    2.00000000000
     2.10705287155   16.88197411163   -2.14155206950    2.00000000000
    16.88197411163    2.10705287155   -2.14155206950    2.00000000000
    16.88197411163   -2.10705287155   -2.14155206950    2.00000000000
     2.10705287155  -16.88197411163   -2.14155206950    2.00000000000
    -2.10705287155  -16.88197411163   -2.14155206950    2.00000000000
   -16.88197411163   -2.10705287155   -2.14155206950    2.00000000000
   -14.77492124009    8.44098705582   -2.14155206950    2.00000000000
    -8.44098705582   14.77492124009   -2.14155206950    2.00000000000
     8.44098705582   14.77492124009   -2.14155206950    2.00000000000
    14.77492124009    8.44098705582   -2.14155206950    2.00000000000
    14.77492124009   -8.44098705582   -2.14155206950    2.00000000000
     8.44098705582  -14.77492124009   -2.14155206950    2.00000000000
    -8.44098705582  -14.77492124009   -2.14155206950    2.00000000000
   -14.77492124009   -8.44098705582   -2.14155206950    2.00000000000
   -14.77172734768    6.33074029186   -6.37814204923   -2.00000000000
    -6.33074029186   14.77172734768   -6.37814204923   -2.00000000000
     6.33074029186   14.77172734768   -6.37814204923   -2.00000000000
    14.77172734768    6.33074029186   -6.37814204923   -2.00000000000
    14.77172734768   -6.33074029186   -6.37814204923   -2.00000000000
     6.33074029186  -14.77172734768   -6.37814204923   -2.00000000000
    -6.33074029186  -14.77172734768   -6.37814204923   -2.00000000000
   -14.77172734768   -6.33074029186   -6.37814204923   -2.00000000000
   -16.88197411163    4.22049352791   -0.04269731856    2.00000000000
    -4.22049352791   16.88197411163   -0.04269731856    2.00000000000
     4.22049352791   16.88197411163   -0.04269731856    2.00000000000
    16.88197411163    4.22049352791   -0.04269731856    2.00000000000
    16.88197411163   -4.22049352791   -0.04269731856    2.00000000000
     4.22049352791  -16.88197411163   -0.04269731856    2.00000000000
    -4.22049352791  -16.88197411163   -0.04269731856    2.00000000000
   -16.88197411163   -4.22049352791   -0.04269731856    2.00000000000
   -16.88197411163    0.00000000000   -4.26789528527    2.00000000000
     0.00000000000   16.88197411163   -4.26789528527    2.00000000000
    16.88197411163    0.00000000000   -4.26789528527    2.00000000000
     0.00000000000  -16.88197411163   -4.26789528527    2.00000000000
   -16.88197411163    4.22049352791   -2.15129719490   -2.00000000000
    -4.22049352791   16.88197411163   -2.15129719490   -2.00000000000
     4.22049352791   16.88197411163   -2.15129719490   -2.00000000000
    16.88197411163    4.22049352791   -2.15129719490   -2.00000000000
    16.88197411163   -4.22049352791   -2.15129719490   -2.00000000000
     4.22049352791  -16.88197411163   -2.15129719490   -2.00000000000
    -4.22049352791  -16.88197411163   -2.15129719490   -2.00000000000
   -16.88197411163   -4.22049352791   -2.15129719490   -2.00000000000
   -16.88197411163    2.11024676395   -4.26789528527   -2.00000000000
   -14.77172734768    8.44098705582   -4.26789528527   -2.00000000000
    -8.44098705582   14.77172734768   -4.26789528527   -2.00000000000
    -2.11024676395   16.88197411163   -4.26789528527   -2.00000000000
     2.11024676395   16.88197411163   -4.26789528527   -2.00000000000
     8.44098705582   14.77172734768   -4.26789528527   -2.00000000000
    14.77172734768    8.44098705582   -4.26789528527   -2.00000000000
    16.88197411163    2.11024676395   -4.26789528527   -2.00000000000
    16.88197411163   -2.11024676395   -4.26789528527   -2.00000000000
    14.77172734768   -8.44098705582   -4.26789528527   -2.00000000000
     8.44098705582  -14.77172734768   -4.26789528527   -2.00000000000
     2.11024676395  -16.88197411163   -4.26789528527   -2.00000000000
    -2.11024676395  -16.88197411163   -4.26789528527   -2.00000000000
    -8.44098705582  -14.77172734768   -4.26789528527   -2.00000000000
   -14.77172734768   -8.44098705582   -4.26789528527   -2.00000000000
   -16.88197411163   -2.11024676395   -4.26789528527   -2.00000000000
   -12.66148058373   10.55123381977   -6.37814204923    2.00000000000
   -10.55123381977   12.66148058373   -6.37814204923    2.00000000000
    10.55123381977   12.66148058373   -6.37814204923    2.00000000000
    12.66148058373   10.55123381977   -6.37814204923    2.00000000000
    12.66148058373  -10.55123381977   -6.37814204923    2.00000000000
    10.55123381977  -12.66148058373   -6.37814204923    2.00000000000
   -10.55123381977  -12.66148058373   -6.37814204923    2.00000000000
   -12.66148058373  -10.55123381977   -6.37814204923    2.00000000000
   -12.66148058373   12.66148058373   -0.03992370948    2.00000000000
    12.66148058373   12.66148058373   -0.03992370948    2.00000000000
    12.66148058373  -12.66148058373   -0.03992370948    2.00000000000
   -12.66148058373  -12.66148058373   -0.03992370948    2.00000000000
   -16.88197411163    4.22049352791   -4.26789528527    2.00000000000
    -4.22049352791   16.88197411163   -4.26789528527    2.00000000000
     4.22049352791   16.88197411163   -4.26789528527    2.00000000000
    16.88197411163    4.22049352791   -4.26789528527    2.00000000000
    16.88197411163   -4.22049352791   -4.26789528527    2.00000000000
     4.22049352791  -16.88197411163   -4.26789528527    2.00000000000
    -4.22049352791  -16.88197411163   -4.26789528527    2.00000000000
   -16.88197411163   -4.22049352791   -4.26789528527    2.00000000000
   -16.88197411163    6.32080279923    0.00567209089   -2.00000000000
    -6.32080279923   16.88197411163    0.00567209089   -2.00000000000
     6.32080279923   16.88197411163    0.00567209089   -2.00000000000
    16.88197411163    6.32080279923    0.00567209089   -2.00000000000
    16.88197411163   -6.32080279923    0.00567209089   -2.00000000000
     6.32080279923  -16.88197411163    0.00567209089   -2.00000000000
    -6.32080279923  -16.88197411163    0.00567209089   -2.00000000000
   -16.88197411163   -6.32080279923    0.00567209089   -2.00000000000
   -12.66148058373   12.66148058373   -2.15028985266   -2.00000000000
    12.66148058373   12.66148058373   -2.15028985266   -2.00000000000
    12.66148058373  -12.66148058373   -2.15028985266   -2.00000000000
   -12.66148058373  -12.66148058373   -2.15028985266   -2.00000000000
   -16.88197411163    0.00000000000   -6.37814204923   -2.00000000000
     0.00000000000   16.88197411163   -6.37814204923   -2.00000000000
    16.88197411163    0.00000000000   -6.37814204923   -2.00000000000
     0.00000000000  -16.88197411163   -6.37814204923   -2.00000000000
   -14.77053148910   10.55242967836   -0.04367284424    2.00000000000
   -10.55242967836   14.77053148910   -0.04367284424    2.00000000000
    10.55242967836   14.77053148910   -0.04367284424    2.00000000000
    14.77053148910   10.55242967836   -0.04367284424    2.00000000000
    14.77053148910  -10.55242967836   -0.04367284424    2.00000000000
    10.55242967836  -14.77053148910   -0.04367284424    2.00000000000
   -10.55242967836  -14.77053148910   -0.04367284424    2.00000000000
   -14.77053148910  -10.55242967836   -0.04367284424    2.00000000000
   -16.88197411163    6.33393418427   -2.14155206950    2.00000000000
    -6.33393418427   16.88197411163   -2.14155206950    2.00000000000
     6.33393418427   16.88197411163   -2.14155206950    2.00000000000
    16.88197411163    6.33393418427   -2.14155206950    2.00000000000
    16.88197411163   -6.33393418427   -2.14155206950    2.00000000000
     6.33393418427  -16.88197411163   -2.14155206950    2.00000000000
    -6.33393418427  -16.88197411163   -2.14155206950    2.00000000000
   -16.88197411163   -6.33393418427   -2.14155206950    2.00000000000
   -16.88197411163    2.11024676395   -6.37814204923    2.00000000000
   -14.77172734768    8.44098705582   -6.37814204923    2.00000000000
    -8.44098705582   14.77172734768   -6.37814204923    2.00000000000
    -2.11024676395   16.88197411163   -6.37814204923    2.00000000000
     2.11024676395   16.88197411163   -6.37814204923    2.00000000000
     8.44098705582   14.77172734768   -6.37814204923    2.00000000000
    14.77172734768    8.44098705582   -6.37814204923    2.00000000000
    16.88197411163    2.11024676395   -6.37814204923    2.00000000000
    16.88197411163   -2.11024676395   -6.37814204923    2.00000000000
    14.77172734768   -8.44098705582   -6.37814204923    2.00000000000
     8.44098705582  -14.77172734768   -6.37814204923    2.00000000000
     2.11024676395  -16.88197411163   -6.37814204923    2.00000000000
    -2.11024676395  -16.88197411163   -6.37814204923    2.00000000000
    -8.44098705582  -14.77172734768   -6.37814204923    2.00000000000
   -14.77172734768   -8.44098705582   -6.37814204923    2.00000000000
   -16.88197411163   -2.11024676395   -6.37814204923    2.00000000000
   -14.77126959714   10.55169157031   -2.14923989662   -2.00000000000
   -10.55169157031   14.77126959714   -2.14923989662   -2.00000000000
    10.55169157031   14.77126959714   -2.14923989662   -2.00000000000
    14.77126959714   10.55169157031   -2.14923989662   -2.00000000000
    14.77126959714  -10.55169157031   -2.14923989662   -2.00000000000
    10.55169157031  -14.77126959714   -2.14923989662   -2.00000000000
   -10.55169157031  -14.77126959714   -2.14923989662   -2.00000000000
   -14.77126959714  -10.55169157031   -2.14923989662   -2.00000000000
   -12.66148058373   12.66148058373   -4.26789528527    2.00000000000
    12.66148058373   12.66148058373   -4.26789528527    2.00000000000
    12.66148058373  -12.66148058373   -4.26789528527    2.00000000000
[...]
 
 Convergence criterion:  1.0E-05
 
 Number of occupied/virtual/auxiliary orbitals:    37   111   372
    453.84 MB is the minimal memory requirement for (T)
    330.08 MB is the minimal memory requirement for CCSD
 
 MP2 correlation energy [au]:       -1.113724299972
 
 LMP2 domain correlation energy contribution [au]:       -0.058900057891
 
 CPU time [min]:   311.575                   Wall time [min]:    45.358
 
 
 Starting CCSD iterations...
 
                     Residual norm       Correlation Energy
 Iteration  1        0.222648579085       -1.118539590616
 Iteration  2        0.065491503654       -1.144355693926
 Iteration  3        0.023975693056       -1.149098714086
 Iteration  4        0.006007767150       -1.149387806059
 Iteration  5        0.001914351291       -1.149325902438
 Iteration  6        0.000611978352       -1.149320308329
 Iteration  7        0.000238544143       -1.149312389332
 Iteration  8        0.000086794838       -1.149309926392
 
 CCSD iteration has converged in  8 steps.
      879.14 MB memory was utilized by CCSD
 
 T1 diagnostic:      1.286E-02            D1 diagnostic:      4.539E-02
 
 T1 contribution [au]:                         0.000000000000
 CCSD correlation energy [au]:                -0.058706354694
 
 CPU time [min]:   317.245                   Wall time [min]:    46.164
 
 Calculation of (T) correction...
 
 Laplace threshold, nquadmin:  1.00E-03   4
 Number of quadrature points:    4
 
      898.88 MB memory is utilized for (T)

 0%       25%       50%       75%       100%
 |---------|---------|---------|---------| 
 
 (T) correction [au]:                   -0.001898683202
 CCSD(T) correlation energy [au]:       -0.060605037896
 
 CPU time [min]:   323.762                   Wall time [min]:    46.999
 
 MO:    64
 Number of atoms in domain:      24
 Number of atomic orbitals:     527
 Number of atoms for local DF:   24
 Number of fitting functions:  1748 (100.00%)
 Number of occupied orbitals:    52
 Number of virtual  orbitals:   417
 Number of Cholesky vectors:      7
 MP2 energy in ED [au]:          -0.058990972408
 Number of occupied LNOs:        37  (71.15%)
 Number of virtual  LNOs:       111  (26.62%)
 Number of Cholesky vectors:      5
 MP2 energy in LIS [au]:         -0.058882279318
 Correction for frozen LNO [au]: -0.000108693090     (0.184%)
 Number of NAFs:                372  (21.28%)
 CPU time [min]:   326.154                   Wall time [min]:    47.383
 

 Direct DF-CCSD(T) calculation
 
 Convergence criterion:  1.0E-05
 
 Number of occupied/virtual/auxiliary orbitals:    37   111   372
    453.84 MB is the minimal memory requirement for (T)
    330.08 MB is the minimal memory requirement for CCSD
 
 MP2 correlation energy [au]:       -1.113645766716
 
 LMP2 domain correlation energy contribution [au]:       -0.058899652327
 
 CPU time [min]:   326.238                   Wall time [min]:    47.404
 
 
 Starting CCSD iterations...
 
                     Residual norm       Correlation Energy
 Iteration  1        0.222640389916       -1.118474266410
 Iteration  2        0.065485736398       -1.144288560580
 Iteration  3        0.023973390077       -1.149030903354
 Iteration  4        0.006007223951       -1.149319976285
 Iteration  5        0.001914173076       -1.149258055461
 Iteration  6        0.000611950936       -1.149252448552
 Iteration  7        0.000238529905       -1.149244533828
 Iteration  8        0.000086793454       -1.149242074483
 
 CCSD iteration has converged in  8 steps.
      879.14 MB memory was utilized by CCSD
 
 T1 diagnostic:      1.286E-02            D1 diagnostic:      4.539E-02
 
 T1 contribution [au]:                         0.000000000000
 CCSD correlation energy [au]:                -0.058705988839
 
 CPU time [min]:   331.923                   Wall time [min]:    48.211
 
 Calculation of (T) correction...
 
 Laplace threshold, nquadmin:  1.00E-03   4
 Number of quadrature points:    4
 
      898.88 MB memory is utilized for (T)

 0%       25%       50%       75%       100%
 |---------|---------|---------|---------| 
 
 (T) correction [au]:                   -0.001898656800
 CCSD(T) correlation energy [au]:       -0.060604645639
 
 CPU time [min]:   338.431                   Wall time [min]:    49.046
 
 MO:    65
 Number of atoms in domain:      24
 Number of atomic orbitals:     527
 Number of atoms for local DF:   24
 Number of fitting functions:  1748 (100.00%)
 Number of occupied orbitals:    52
 Number of virtual  orbitals:   417
 Number of Cholesky vectors:      7
 MP2 energy in ED [au]:          -0.058991008505
 Number of occupied LNOs:        37  (71.15%)
 Number of virtual  LNOs:       111  (26.62%)
 Number of Cholesky vectors:      5
 MP2 energy in LIS [au]:         -0.058882273776
 Correction for frozen LNO [au]: -0.000108734729     (0.184%)
 Number of NAFs:                372  (21.28%)
 CPU time [min]:   340.818                   Wall time [min]:    49.429
 

 Direct DF-CCSD(T) calculation
 
 Convergence criterion:  1.0E-05
 
 Number of occupied/virtual/auxiliary orbitals:    37   111   372
    453.84 MB is the minimal memory requirement for (T)
    330.08 MB is the minimal memory requirement for CCSD
 
 MP2 correlation energy [au]:       -1.113639178956
 
 LMP2 domain correlation energy contribution [au]:       -0.058899668673
 
 CPU time [min]:   340.903                   Wall time [min]:    49.450
 
 
 Starting CCSD iterations...
 
                     Residual norm       Correlation Energy
 Iteration  1        0.222636911262       -1.118471793507
 Iteration  2        0.065484426982       -1.144285731189
 Iteration  3        0.023972814762       -1.149027927924
 Iteration  4        0.006007207507       -1.149317013398
 Iteration  5        0.001914167459       -1.149255077022
 Iteration  6        0.000611961827       -1.149249470173
 Iteration  7        0.000238543594       -1.149241557038
 Iteration  8        0.000086802428       -1.149239097322
 
 CCSD iteration has converged in  8 steps.
      879.14 MB memory was utilized by CCSD
 
 T1 diagnostic:      1.286E-02            D1 diagnostic:      4.539E-02
 
 T1 contribution [au]:                         0.000000000000
 CCSD correlation energy [au]:                -0.058706000602
 
 CPU time [min]:   346.564                   Wall time [min]:    50.254
 
 Calculation of (T) correction...
 
 Laplace threshold, nquadmin:  1.00E-03   4
 Number of quadrature points:    4
 
      898.88 MB memory is utilized for (T)

 0%       25%       50%       75%       100%
 |---------|---------|---------|---------| 
 
 (T) correction [au]:                   -0.001898653016
 CCSD(T) correlation energy [au]:       -0.060604653618
 
 CPU time [min]:   353.042                   Wall time [min]:    51.085
 
 MO:    66
 Number of atoms in domain:      24
 Number of atomic orbitals:     527
 Number of atoms for local DF:   24
 Number of fitting functions:  1748 (100.00%)
 Number of occupied orbitals:    66
 Number of virtual  orbitals:   417
 Number of Cholesky vectors:      7
 MP2 energy in ED [au]:          -0.055991630799
 Number of occupied LNOs:        31  (46.97%)
 Number of virtual  LNOs:        98  (23.50%)
 Number of Cholesky vectors:      5
 MP2 energy in LIS [au]:         -0.055827499476
 Correction for frozen LNO [au]: -0.000164131323     (0.293%)
 Number of NAFs:                324  (18.54%)
 CPU time [min]:   355.458                   Wall time [min]:    51.471
 

 Direct DF-CCSD(T) calculation
 
 Convergence criterion:  1.0E-05
 
 Number of occupied/virtual/auxiliary orbitals:    31    98   324
    294.55 MB is the minimal memory requirement for (T)
    214.92 MB is the minimal memory requirement for CCSD
 
 MP2 correlation energy [au]:       -1.112366180645
 
 LMP2 domain correlation energy contribution [au]:       -0.055854542174
 
 CPU time [min]:   355.516                   Wall time [min]:    51.482
 
 
 Starting CCSD iterations...
 
                     Residual norm       Correlation Energy
 Iteration  1        0.211295458727       -1.118600946823
 Iteration  2        0.059802749109       -1.141039296816
 Iteration  3        0.020819990994       -1.145140843246
 Iteration  4        0.004064597479       -1.145278154989
 Iteration  5        0.001151300116       -1.145264773779
 Iteration  6        0.000276813153       -1.145265707175
 Iteration  7        0.000086495553       -1.145262440412
 
 CCSD iteration has converged in  7 steps.
      545.23 MB memory was utilized by CCSD
 
 T1 diagnostic:      1.181E-02            D1 diagnostic:      3.809E-02
 
 T1 contribution [au]:                         0.000000000000
 CCSD correlation energy [au]:                -0.056318414134
 
 CPU time [min]:   358.004                   Wall time [min]:    51.822
 
 Calculation of (T) correction...
 
 Laplace threshold, nquadmin:  1.00E-03   4
 Number of quadrature points:    4
 
      540.40 MB memory is utilized for (T)

 0%       25%       50%       75%       100%
 |---------|---------|---------|---------| 
 
 (T) correction [au]:                   -0.001458353400
 CCSD(T) correlation energy [au]:       -0.057776767534
 
 CPU time [min]:   360.882                   Wall time [min]:    52.187
 
 MO:    67
 Number of atoms in domain:      24
 Number of atomic orbitals:     527
 Number of atoms for local DF:   24
 Number of fitting functions:  1748 (100.00%)
 Number of occupied orbitals:    64
 Number of virtual  orbitals:   417
 Number of Cholesky vectors:      7
 MP2 energy in ED [au]:          -0.055988254805
 Number of occupied LNOs:        31  (48.44%)
 Number of virtual  LNOs:        98  (23.50%)
 Number of Cholesky vectors:      5
 MP2 energy in LIS [au]:         -0.055835492038
 Correction for frozen LNO [au]: -0.000152762767     (0.273%)
 Number of NAFs:                325  (18.59%)
 CPU time [min]:   363.266                   Wall time [min]:    52.568
 

 Direct DF-CCSD(T) calculation
 
 Convergence criterion:  1.0E-05
 
 Number of occupied/virtual/auxiliary orbitals:    31    98   325
    294.78 MB is the minimal memory requirement for (T)
    215.10 MB is the minimal memory requirement for CCSD
 
 MP2 correlation energy [au]:       -1.110835659139
 
 LMP2 domain correlation energy contribution [au]:       -0.055862756500
 
 CPU time [min]:   363.325                   Wall time [min]:    52.579
 
 
 Starting CCSD iterations...
 
                     Residual norm       Correlation Energy
 Iteration  1        0.214077567950       -1.115156420058
 Iteration  2        0.060673643757       -1.138410667766
 Iteration  3        0.021059443442       -1.142503775373
 Iteration  4        0.004158115857       -1.142642730213
 Iteration  5        0.001181703508       -1.142638002587
 Iteration  6        0.000282957603       -1.142640996781
 Iteration  7        0.000089062157       -1.142637585038
 
 CCSD iteration has converged in  7 steps.
      545.40 MB memory was utilized by CCSD
 
 T1 diagnostic:      1.217E-02            D1 diagnostic:      3.807E-02
 
 T1 contribution [au]:                         0.000000000000
 CCSD correlation energy [au]:                -0.056326527694
 
 CPU time [min]:   365.836                   Wall time [min]:    52.922
 
 Calculation of (T) correction...
 
 Laplace threshold, nquadmin:  1.00E-03   4
 Number of quadrature points:    4
 
      540.57 MB memory is utilized for (T)

 0%       25%       50%       75%       100%
 |---------|---------|---------|---------| 
 
 (T) correction [au]:                   -0.001460284157
 CCSD(T) correlation energy [au]:       -0.057786811851
 
 CPU time [min]:   368.708                   Wall time [min]:    53.286
 
 MO:    68
 Number of atoms in domain:      24
 Number of atomic orbitals:     527
 Number of atoms for local DF:   24
 Number of fitting functions:  1748 (100.00%)
 Number of occupied orbitals:    54
 Number of virtual  orbitals:   417
 Number of Cholesky vectors:      7
 MP2 energy in ED [au]:          -0.059321425654
 Number of occupied LNOs:        37  (68.52%)
 Number of virtual  LNOs:       113  (27.10%)
 Number of Cholesky vectors:      5
 MP2 energy in LIS [au]:         -0.059195648512
 Correction for frozen LNO [au]: -0.000125777142     (0.212%)
 Number of NAFs:                384  (21.97%)
 CPU time [min]:   371.143                   Wall time [min]:    53.675
 

 Direct DF-CCSD(T) calculation
 
 Convergence criterion:  1.0E-05
 
 Number of occupied/virtual/auxiliary orbitals:    37   113   384
    473.50 MB is the minimal memory requirement for (T)
    342.66 MB is the minimal memory requirement for CCSD
 
 MP2 correlation energy [au]:       -1.178796483843
 
 LMP2 domain correlation energy contribution [au]:       -0.059215448921
 
 CPU time [min]:   371.230                   Wall time [min]:    53.698
 
 
 Starting CCSD iterations...
 
                     Residual norm       Correlation Energy
 Iteration  1        0.227228076632       -1.173040456941
 Iteration  2        0.070621648420       -1.199695786629
 Iteration  3        0.025756265466       -1.205469087940
 Iteration  4        0.005972580702       -1.205604995254
 Iteration  5        0.001950289929       -1.205547854290
 Iteration  6        0.000570674766       -1.205564090162
 Iteration  7        0.000225905090       -1.205557365407
 Iteration  8        0.000071152098       -1.205553054086
 
 CCSD iteration has converged in  8 steps.
      933.69 MB memory was utilized by CCSD
 
 T1 diagnostic:      1.247E-02            D1 diagnostic:      4.473E-02
 
 T1 contribution [au]:                         0.000000000000
 CCSD correlation energy [au]:                -0.059134408452
 
 CPU time [min]:   377.131                   Wall time [min]:    54.539
 
 Calculation of (T) correction...
 
 Laplace threshold, nquadmin:  1.00E-03   4
 Number of quadrature points:    4
 
      940.38 MB memory is utilized for (T)

 0%       25%       50%       75%       100%
 |---------|---------|---------|---------| 
 
 (T) correction [au]:                   -0.001938266674
 CCSD(T) correlation energy [au]:       -0.061072675126
 
 CPU time [min]:   383.942                   Wall time [min]:    55.416
 
 **********************************************************************
 Dimensions of the extended domains:    Minimum / Average / Maximum
 
 Number of atoms in domain:                  24      24.0        24
 Number of atomic orbitals:                 527     527.0       527
 Number of fitting functions:              1460    1620.9      1748
 Number of occupied localized MOs:           30      42.1        68
 Number of PAOs:                            396     408.7       417
 Number of occupied LNOs:                    19      25.5        37
 Number of virtual  LNOs:                    60      79.2       113
 Number of NAFs:                            188     258.8       385
 
 **********************************************************************
 Distant (and weak) pair contributions, corrections
 
 Sum of pair energies [au]:                    -0.000787809374    (0.020%)
 Sum of energy corrections [au]:               -0.006784504640    (0.175%)
 Pair energies + LNO corrections [au]:         -0.007572314014
 Sum of LMP2 contributions [au]:               -3.869318519807
 
 **********************************************************************
  Time of manipulations in the EDs:      max CPU/Wall [s]  all CPU/Wall [min]
 
 PD construction & multipole pair E     113.72    14.50     1.90     0.24
 Construct MO basis of the ED             1.60     0.23     1.64     0.21
 (mu,nu|P) evaluation & trf 2 (ai|P)     46.03     5.79    32.28     4.05
 Evaluate MP2 energy of the ED           13.46     1.69     8.64     1.08
 Transformations to the LNO basis         4.26     0.56     2.80     0.35
 Build W_PQ (Jai or Jpi part)             0.71     0.09     0.49     0.06
 Evaluate MP2 energy of the LIS           0.45     0.06     0.21     0.03
 (mu,nu|P) evaluation & trf 2 J(abQ)     86.68    15.93    63.26    12.77
 Total of the above for all EDs         153.18    24.33   109.31    18.56
 
 **********************************************************************
 Maximum memory requirement [MB]:       
 
 PD construction & multipole pair E         47.7
 AO integral evaluation in the EDs          61.5
 (mu,nu|P) evaluation & trf 2 (aI|P)      1116.4
 Evaluate MP2 energy in the EDs           1043.9
 Transformation to the LNO basis           407.9
 (mu,nu|P) to Jab transformation           337.0
 Evaluate MP2 energy in the LIS            428.1
 Minimum requirement for LIS CCSD          342.9
 Actually allocated  for LIS CCSD          933.9
 Minimum requirement for LIS (T)           473.9
 Actually allocated  for LIS (T)           940.6
 
 ======================================================================
 ======================================================================
 
 
 
 ======================================================================
 ======================================================================
 
 Final local CC results:
 
 Minimum number of correlated electrons:        38       ( 27.9%)
 Maximum number of correlated electrons:        74       ( 54.4%)
 Average number of correlated electrons:        51.1     ( 37.6%)
 Minimum number of correlated orbitals:         79       ( 16.3%)
 Maximum number of correlated orbitals:        150       ( 30.9%)
 Average number of correlated orbitals:        104.8     ( 21.6%)
 
 CPU time for integral calculations [min]:                  1.421
 Wall time for integral calculations [min]:                 0.850
 
 CPU time for SCF calculation [min]:                       22.506
 Wall time for SCF calculation [min]:                       2.850
 
 CPU time for orbital localization [min]:                   0.086
 Wall time for orbital localization [min]:                  0.039
 
 CPU time for integral transformations [min]:             115.302
 Wall time for integral transformations [min]:             19.323
 
 Reference energy [au]:                                -11578.037914482633
 
 LMP2 correlation energy [au]:                             -3.869318519807
 Total LMP2 energy [au]:                               -11581.907233002439
 
 Total MP2 correction for dropped NAFs [au]:                0.001783544520
 Total MP2 correction [au]:                                -0.005788769494
 
 CPU time for CCSD calculations [min]:                    127.481
 Total CPU time for CCSD [min]:                           266.796
 Wall time for CCSD calculations [min]:                    17.949
 Total wall time for CCSD [min]:                           41.010
 
 CCSD correlation energy [au]:                             -3.880273515960
 Total CCSD energy [au]:                               -11581.918187998592
 CCSD correlation energy + 0.5 MP2 corrections [au]:       -3.883167900706
 Total LNO-CCSD energy with MP2 corrections [au]:      -11581.921082383340
 
 CPU time for (T) corrections [min]:                      141.165
 Total CPU time for CCSD(T) [min]:                        407.961
 Wall time for (T) corrections [min]:                      18.146
 Total wall time for CCSD(T) [min]:                        59.156
 
 Total (T) correlation energy contribution [au]:           -0.105817199296
 Total (T) correlation energy+0.5 MP2 correction [au]:     -0.108711584043
 CCSD(T) correlation energy [au]:                          -3.986090715256
 Total CCSD(T) energy [au]:                            -11582.024005197889
 CCSD(T) correlation energy + MP2 corrections [au]:        -3.991879484749
 Total LNO-CCSD(T) energy with MP2 corrections [au]:   -11582.029793967382
 
 ======================================================================
 ======================================================================
 
 ************************ 2024-11-25 17:09:31 *************************
                      Normal termination of mrcc.
 **********************************************************************
