 vasp.6.3.0 20Jan22 (build Dec 25 2023 18:06:01) complex
 executed on        HPECrayEX_GCC date 2024.01.26  04:11:24
 running  512 mpi-ranks, with    1 threads/rank
 distrk:  each k-point on  512 cores,    1 groups
 distr:  one band on NCORE=   8 cores,   64 groups


--------------------------------------------------------------------------------------------------------


 INCAR:
   SYSTEM = MgO-rocksalt
   ISMEAR = 0
   SIGMA = 0.05
   EDIFF = 1E-5
   ALGO = ALL
   ISTART = 0
   IBRION = -1
   NSW = 0
   ISYM = 2
   ISIF = 2
   DIPOL = 0.5 0.5 0.5
   IDIPOL = 3
   LDIPOL = .TRUE.
   LHFCALC = .TRUE.
   GGA = B5
   AEXX = 0.2
   AGGAX = 0.72
   AGGAC = 0.81
   ALDAC = 0.19
   IVDW = 1
   VDW_S6 = 1.05
   VDW_C6 = 1.75 0.70
   VDW_R0 = 1.452 1.342
   ENCUT = 600
   PREC = Accurate
   LASPH = .TRUE.
   LREAL = .FALSE.
   ISPIN = 1
   NELM = 200
   NELMIN = 8
   NCORE = 8
   KPAR = 1
   LWAVE = .FALSE.
   LCHARG = .FALSE.

 POTCAR:    PAW_PBE C 08Apr2002
 POTCAR:    PAW_PBE O 08Apr2002
 -----------------------------------------------------------------------------
|                                                                             |
|           W    W    AA    RRRRR   N    N  II  N    N   GGGG   !!!           |
|           W    W   A  A   R    R  NN   N  II  NN   N  G    G  !!!           |
|           W    W  A    A  R    R  N N  N  II  N N  N  G       !!!           |
|           W WW W  AAAAAA  RRRRR   N  N N  II  N  N N  G  GGG   !            |
|           WW  WW  A    A  R   R   N   NN  II  N   NN  G    G                |
|           W    W  A    A  R    R  N    N  II  N    N   GGGG   !!!           |
|                                                                             |
|     You have selected ISYM=2 for a HF type calculation. This will           |
|     symmetrize the charge density but not the exchange potential. I         |
|     suggest to use ISYM=3 instead. This uses symmetry to obtain the         |
|     orbitals at all k-points in the Brillouin zone, but does not apply      |
|     symmetry to the Hartree potential directly. The resultant charge        |
|     might have lower symmetry than the crystal but, at least, Hartree       |
|     and exchange are fully compatible.                                      |
|                                                                             |
 -----------------------------------------------------------------------------

 POTCAR:    PAW_PBE C 08Apr2002
   SHA256 =  253f7b50bb8d59471dbedb8285d89021f4a42ed1a2c5d38a03a736e69125dd95 C/POTCAR
   COPYR  = (c) Copyright 08Apr2002 Georg Kresse
   COPYR  = This file is part of the software VASP. Any use, copying, and all other rights are regul
   COPYR  = If you do not have a valid VASP license, you may not use, copy or distribute this file.
   VRHFIN =C: s2p2
   LEXCH  = PE
   EATOM  =   147.1560 eV,   10.8157 Ry

   TITEL  = PAW_PBE C 08Apr2002
   LULTRA =        F    use ultrasoft PP ?
   IUNSCR =        1    unscreen: 0-lin 1-nonlin 2-no
   RPACOR =    1.200    partial core radius
   POMASS =   12.011; ZVAL   =    4.000    mass and valenz
   RCORE  =    1.500    outmost cutoff radius
   RWIGS  =    1.630; RWIGS  =    0.863    wigner-seitz radius (au A)
   ENMAX  =  400.000; ENMIN  =  300.000 eV
   ICORE  =        2    local potential
   LCOR   =        T    correct aug charges
   LPAW   =        T    paw PP
   EAUG   =  644.873
   DEXC   =    0.000
   RMAX   =    1.529    core radius for proj-oper
   RAUG   =    1.300    factor for augmentation sphere
   RDEP   =    1.501    radius for radial grids
   RDEPT  =    1.300    core radius for aug-charge

   Atomic configuration
    4 entries
     n  l   j            E        occ.
     1  0  0.50      -273.3789   2.0000
     2  0  0.50       -13.7508   2.0000
     2  1  0.50        -5.2854   2.0000
     3  2  1.50        -5.4423   0.0000
   Description
     l       E           TYP  RCUT    TYP  RCUT
     0    -13.7508458     23  1.200
     0     -8.2022199     23  1.200
     1     -5.2854383     23  1.500
     1     34.0145650     23  1.500
     2     -5.4423304      7  1.500
  local pseudopotential read in
  partial core-charges read in
  partial kinetic energy density read in
  atomic valenz-charges read in
  non local Contribution for L=           0  read in
    real space projection operators read in
  non local Contribution for L=           0  read in
    real space projection operators read in
  non local Contribution for L=           1  read in
    real space projection operators read in
  non local Contribution for L=           1  read in
    real space projection operators read in
    PAW grid and wavefunctions read in

   number of l-projection  operators is LMAX  =           4
   number of lm-projection operators is LMMAX =           8

 POTCAR:    PAW_PBE O 08Apr2002
   SHA256 =  818f92134a0a090dccd8ba1447fa70422a3b330e708bb4f08108d8ae51209ddf O/POTCAR
   COPYR  = (c) Copyright 08Apr2002 Georg Kresse
   COPYR  = This file is part of the software VASP. Any use, copying, and all other rights are regul
   COPYR  = If you do not have a valid VASP license, you may not use, copy or distribute this file.
   VRHFIN =O: s2p4
   LEXCH  = PE
   EATOM  =   432.3788 eV,   31.7789 Ry

   TITEL  = PAW_PBE O 08Apr2002
   LULTRA =        F    use ultrasoft PP ?
   IUNSCR =        1    unscreen: 0-lin 1-nonlin 2-no
   RPACOR =    1.200    partial core radius
   POMASS =   16.000; ZVAL   =    6.000    mass and valenz
   RCORE  =    1.520    outmost cutoff radius
   RWIGS  =    1.550; RWIGS  =    0.820    wigner-seitz radius (au A)
   ENMAX  =  400.000; ENMIN  =  300.000 eV
   ICORE  =        2    local potential
   LCOR   =        T    correct aug charges
   LPAW   =        T    paw PP
   EAUG   =  605.392
   DEXC   =    0.000
   RMAX   =    1.553    core radius for proj-oper
   RAUG   =    1.300    factor for augmentation sphere
   RDEP   =    1.550    radius for radial grids
   RDEPT  =    1.329    core radius for aug-charge

   Atomic configuration
    4 entries
     n  l   j            E        occ.
     1  0  0.50      -514.6923   2.0000
     2  0  0.50       -23.9615   2.0000
     2  1  0.50        -9.0305   4.0000
     3  2  1.50        -9.5241   0.0000
   Description
     l       E           TYP  RCUT    TYP  RCUT
     0    -23.9615318     23  1.200
     0     -9.5240782     23  1.200
     1     -9.0304911     23  1.520
     1      8.1634956     23  1.520
     2     -9.5240782      7  1.500
  local pseudopotential read in
  partial core-charges read in
  partial kinetic energy density read in
  kinetic energy density of atom read in
  atomic valenz-charges read in
  non local Contribution for L=           0  read in
    real space projection operators read in
  non local Contribution for L=           0  read in
    real space projection operators read in
  non local Contribution for L=           1  read in
    real space projection operators read in
  non local Contribution for L=           1  read in
    real space projection operators read in
    PAW grid and wavefunctions read in

   number of l-projection  operators is LMAX  =           4
   number of lm-projection operators is LMMAX =           8

 -----------------------------------------------------------------------------
|                                                                             |
|               ----> ADVICE to this user running VASP <----                  |
|                                                                             |
|     You enforced a specific xc type in the INCAR file but a different       |
|     type was found in the POTCAR file.                                      |
|     I HOPE YOU KNOW WHAT YOU ARE DOING!                                     |
|                                                                             |
 -----------------------------------------------------------------------------

  PAW_PBE C 08Apr2002                   :
 energy of atom  1       EATOM= -147.1560
 kinetic energy error for atom=    0.0057 (will be added to EATOM!!)
  PAW_PBE O 08Apr2002                   :
 energy of atom  2       EATOM= -432.3788
 kinetic energy error for atom=    0.0168 (will be added to EATOM!!)


 POSCAR:  C  O
  positions in direct lattice
  No initial velocities read in
 exchange correlation table for  LEXCH =       12
   RHO(1)=    0.500       N(1)  =     2000
   RHO(2)=  100.500       N(2)  =     4000



--------------------------------------------------------------------------------------------------------


 ion  position               nearest neighbor table
   1  0.500  0.500  0.765-   2 1.15
   2  0.500  0.500  0.819-   1 1.15

  LATTYP: Found a simple tetragonal cell.
 ALAT       =     8.4409846542
 C/A-ratio  =     2.5270438657

  Lattice vectors:

 A1 = (   8.4409846542,   0.0000000000,   0.0000000000)
 A2 = (   0.0000000000,   8.4409846542,   0.0000000000)
 A3 = (   0.0000000000,   0.0000000000,  21.3307384906)


Analysis of symmetry for initial positions (statically):
=====================================================================
 Subroutine PRICEL returns:
 Original cell was already a primitive cell.


 Routine SETGRP: Setting up the symmetry group for a
 simple tetragonal supercell.


 Subroutine GETGRP returns: Found  8 space group operations
 (whereof  8 operations were pure point group operations)
 out of a pool of 16 trial point group operations.


The static configuration has the point symmetry C_4v.


Analysis of symmetry for dynamics (positions and initial velocities):
=====================================================================
 Subroutine PRICEL returns:
 Original cell was already a primitive cell.


 Routine SETGRP: Setting up the symmetry group for a
 simple tetragonal supercell.


 Subroutine GETGRP returns: Found  8 space group operations
 (whereof  8 operations were pure point group operations)
 out of a pool of 16 trial point group operations.


The dynamic configuration has the point symmetry C_4v.


 Subroutine INISYM returns: Found  8 space group operations
 (whereof  8 operations are pure point group operations),
 and found     1 'primitive' translations


----------------------------------------------------------------------------------------

                                     Primitive cell

  volume of cell :    1519.8199

  direct lattice vectors                    reciprocal lattice vectors
     8.440984654  0.000000000  0.000000000     0.118469591  0.000000000  0.000000000
     0.000000000  8.440984654  0.000000000     0.000000000  0.118469591  0.000000000
     0.000000000  0.000000000 21.330738491     0.000000000  0.000000000  0.046880702

  length of vectors
     8.440984654  8.440984654 21.330738491     0.118469591  0.118469591  0.046880702

  position of ions in fractional coordinates (direct lattice)
     0.500000000  0.500000000  0.765053803
     0.500000000  0.500000000  0.818817521

  ion indices of the primitive-cell ions
   primitive index   ion index
                 1           1
                 2           2

----------------------------------------------------------------------------------------



 KPOINTS: pymatgen v2020.8.13 with grid density =

Automatic generation of k-mesh.
 Grid dimensions read from file:
 generate k-points for:    2    2    1

 Generating k-lattice:

  Cartesian coordinates                     Fractional coordinates (reciprocal lattice)
     0.059234796  0.000000000  0.000000000     0.500000000  0.000000000  0.000000000
     0.000000000  0.059234796  0.000000000     0.000000000  0.500000000  0.000000000
     0.000000000  0.000000000  0.046880702     0.000000000  0.000000000  1.000000000

  Length of vectors
     0.059234796  0.059234796  0.046880702

  Shift w.r.t. Gamma in fractional coordinates (k-lattice)
     0.000000000  0.000000000  0.000000000


 Subroutine IBZKPT returns following result:
 ===========================================

 Found      3 irreducible k-points:

 Following reciprocal coordinates:
            Coordinates               Weight
  0.000000  0.000000  0.000000      1.000000
  0.500000  0.000000  0.000000      2.000000
  0.500000  0.500000  0.000000      1.000000

 Following cartesian coordinates:
            Coordinates               Weight
  0.000000  0.000000  0.000000      1.000000
  0.059235  0.000000  0.000000      2.000000
  0.059235  0.059235  0.000000      1.000000


 Subroutine IBZKPT_HF returns following result:
 ==============================================

 Found      4 k-points in 1st BZ
 the following      4 k-points will be used (e.g. in the exchange kernel)
 Following reciprocal coordinates:   # in IRBZ
  0.000000  0.000000  0.000000    0.25000000   1 t-inv F
  0.500000  0.000000  0.000000    0.25000000   2 t-inv F
  0.500000  0.500000  0.000000    0.25000000   3 t-inv F
 -0.000000  0.500000  0.000000    0.25000000   2 t-inv F


--------------------------------------------------------------------------------------------------------




 Dimension of arrays:
   k-points           NKPTS =      3   k-points in BZ     NKDIM =      4   number of bands    NBANDS=     64
   number of dos      NEDOS =    301   number of ions     NIONS =      2
   non local maximal  LDIM  =      4   non local SUM 2l+1 LMDIM =      8
   total plane-waves  NPLWV = 882000
   max r-space proj   IRMAX =      1   max aug-charges    IRDMAX=   7728
   dimension x,y,z NGX =    70 NGY =   70 NGZ =  180
   dimension x,y,z NGXF=   140 NGYF=  140 NGZF=  360
   support grid    NGXF=   140 NGYF=  140 NGZF=  360
   ions per type =               1   1
   NGX,Y,Z   is equivalent  to a cutoff of  13.79, 13.79, 14.03 a.u.
   NGXF,Y,Z  is equivalent  to a cutoff of  27.57, 27.57, 28.06 a.u.

 SYSTEM =  MgO-rocksalt
 POSCAR =   C  O

 Startparameter for this run:
   NWRITE =      2    write-flag & timer
   PREC   = accura    normal or accurate (medium, high low for compatibility)
   ISTART =      0    job   : 0-new  1-cont  2-samecut
   ICHARG =      2    charge: 1-file 2-atom 10-const
   ISPIN  =      1    spin polarized calculation?
   LNONCOLLINEAR =      F non collinear calculations
   LSORBIT =      F    spin-orbit coupling
   INIWAV =      1    electr: 0-lowe 1-rand  2-diag
   LASPH  =      T    aspherical Exc in radial PAW
 Electronic Relaxation 1
   ENCUT  =  600.0 eV  44.10 Ry    6.64 a.u.  16.86 16.86 42.60*2*pi/ulx,y,z
   ENINI  =  600.0     initial cutoff
   ENAUG  =  644.9 eV  augmentation charge cutoff
   NELM   =    200;   NELMIN=  8; NELMDL= -5     # of ELM steps
   EDIFF  = 0.1E-04   stopping-criterion for ELM
   LREAL  =      F    real-space projection
   NLSPLINE    = F    spline interpolate recip. space projectors
   LCOMPAT=      F    compatible to vasp.4.4
   GGA_COMPAT  = T    GGA compatible to vasp.4.4-vasp.4.6
   LMAXPAW     = -100 max onsite density
   LMAXMIX     =    2 max onsite mixed and CHGCAR
   VOSKOWN=      0    Vosko Wilk Nusair interpolation
   ROPT   =    0.00000   0.00000
 Ionic relaxation
   EDIFFG = 0.1E-03   stopping-criterion for IOM
   NSW    =      0    number of steps for IOM
   NBLOCK =      1;   KBLOCK =      1    inner block; outer block
   IBRION =     -1    ionic relax: 0-MD 1-quasi-New 2-CG
   NFREE  =      0    steps in history (QN), initial steepest desc. (CG)
   ISIF   =      2    stress and relaxation
   IWAVPR =     10    prediction:  0-non 1-charg 2-wave 3-comb
   ISYM   =      2    0-nonsym 1-usesym 2-fastsym
   LCORR  =      T    Harris-Foulkes like correction to forces

   POTIM  = 0.5000    time-step for ionic-motion
   TEIN   =    0.0    initial temperature
   TEBEG  =    0.0;   TEEND  =   0.0 temperature during run
   SMASS  =  -3.00    Nose mass-parameter (am)
   estimated Nose-frequenzy (Omega)   =  0.10E-29 period in steps = 0.13E+47 mass=  -0.163E-26a.u.
   SCALEE = 1.0000    scale energy and forces
   NPACO  =    256;   APACO  = 10.0  distance and # of slots for P.C.
   PSTRESS=    0.0 pullay stress

  Mass of Ions in am
   POMASS =  12.01 16.00
  Ionic Valenz
   ZVAL   =   4.00  6.00
  Atomic Wigner-Seitz radii
   RWIGS  =  -1.00 -1.00
  virtual crystal weights
   VCA    =   1.00  1.00
   NELECT =      10.0000    total number of electrons
   NUPDOWN=      -1.0000    fix difference up-down

 DOS related values:
   EMIN   =  10.00;   EMAX   =-10.00  energy-range for DOS
   EFERMI =   0.00
   ISMEAR =     0;   SIGMA  =   0.05  broadening in eV -4-tet -1-fermi 0-gaus

 Electronic relaxation 2 (details)
   IALGO  =     58    algorithm
   LDIAG  =      T    sub-space diagonalisation (order eigenvalues)
   LSUBROT=      F    optimize rotation matrix (better conditioning)
   TURBO    =      0    0=normal 1=particle mesh
   IRESTART =      0    0=no restart 2=restart with 2 vectors
   NREBOOT  =      0    no. of reboots
   NMIN     =      0    reboot dimension
   EREF     =   0.00    reference energy to select bands
   IMIX   =      4    mixing-type and parameters
     AMIX     =   0.40;   BMIX     =  1.00
     AMIX_MAG =   1.60;   BMIX_MAG =  1.00
     AMIN     =   0.10
     WC   =   100.;   INIMIX=   1;  MIXPRE=   1;  MAXMIX= -45

 Intra band minimization:
   WEIMIN = 0.0000     energy-eigenvalue tresh-hold
   EBREAK =  0.39E-07  absolut break condition
   DEPER  =   0.30     relativ break condition

   TIME   =   0.40     timestep for ELM

  volume/ion in A,a.u.               =     759.91      5128.13
  Fermi-wavevector in a.u.,A,eV,Ry     =   0.306769  0.579708  1.280402  0.094107
  Thomas-Fermi vector in A             =   1.181026

 Write flags
   LWAVE        =      F    write WAVECAR
   LDOWNSAMPLE  =      F    k-point downsampling of WAVECAR
   LCHARG       =      F    write CHGCAR
   LVTOT        =      F    write LOCPOT, total local potential
   LVHAR        =      F    write LOCPOT, Hartree potential only
   LELF         =      F    write electronic localiz. function (ELF)
   LORBIT       =      0    0 simple, 1 ext, 2 COOP (PROOUT), +10 PAW based schemes


 Dipole corrections
   LMONO  =      F    monopole corrections only (constant potential shift)
   LDIPOL =      T    correct potential (dipole corrections)
   IDIPOL =      3    1-x, 2-y, 3-z, 4-all directions
   EPSILON=  1.0000000 bulk dielectric constant

 Exchange correlation treatment:
   GGA     =    B5    GGA type
   LEXCH   =    12    internal setting for exchange type
   LIBXC   =     F    Libxc
   VOSKOWN =     0    Vosko Wilk Nusair interpolation
   EXXOEP  =     0    0=HF, 1=EXX-LHF (local Hartree Fock) 2=EXX OEP
   LHFCALC =     T    Hartree Fock is set to
   LSYMGRAD=     F    symmetrize gradient (conserves proper symmetry)
   PRECFOCK=normal    Normal, Fast or Accurate (Low or Medium for compatibility)
   LRHFCALC=     F    long range Hartree Fock
   LRSCOR  =     F    long range correlation only (use DFT for short range part)
   LTHOMAS =     F    Thomas Fermi screening in HF
   LMODELHF=     F    short range full HF, long range fraction AEXX
   LFOCKACE=     T    use Adeptively-Compressed-Exchange operator
   ENCUT4O =  -1.0   cutoff for four orbital integrals eV
   LMAXFOCK=     4    L truncation for augmentation on plane wave grid
   LMAXFOCKAE=  -1    L truncation for all-electron charge restoration on plane wave grid
   NMAXFOCKAE=   1    number of basis functions for all-electron charge restoration
   LFOCKAEDFT=     F  apply the AE augmentation even for DFT
   NKREDX  =     1    reduce k-point grid by
   NKREDY  =     1    reduce k-point grid by
   NKREDZ  =     1    reduce k-point grid by
   SHIFTRED=     F    shift reduced grid of Gamma
   HFKIDENT=     F    idential grid for each k-point
   ODDONLY =     F    use only odd q-grid points
   EVENONLY=     F    use only even q-grid points
   HFALPHA =   -1.0000 decay constant for conv. correction
   MCALPHA =    0.0000 extent of test-charge in conv. correction in multipole expansion
   AEXX    =    0.2000 exact exchange contribution
   HFSCREEN=    0.0000 screening length (either q_TF or 0.3 A-1)
   HFSCREENC=   0.0000 screening length for correlation (either q_TF or 0.3 A-1)
   HFRCUT  =    0.0000 spherical cutoff for potential kernel
   ALDAX   =    0.8000 LDA exchange part
   AGGAX   =    0.7200 GGA exchange part
   ALDAC   =    0.1900 LDA correlation
   AGGAC   =    0.8100 GGA correlation
   ENCUTFOCK=  -1.0 apply spherical cutoff to Coloumb kernel
   NBANDSGWLOW=     1    first orbital included in HF term
   NBLOCK_FOCK=    64    blocking factor in FOCK_ACC

 Linear response parameters
   LEPSILON=     F    determine dielectric tensor
   LRPA    =     F    only Hartree local field effects (RPA)
   LNABLA  =     F    use nabla operator in PAW spheres
   LVEL    =     F    velocity operator in full k-point grid
   CSHIFT  =0.1000    complex shift for real part using Kramers Kronig
   OMEGAMAX=  -1.0    maximum frequency
   DEG_THRESHOLD= 0.2000000E-02 threshold for treating states as degnerate
   RTIME   =   -0.100 relaxation time in fs
  (WPLASMAI=    0.000 imaginary part of plasma frequency in eV, 0.658/RTIME)
   DFIELD  = 0.0000000 0.0000000 0.0000000 field for delta impulse in time

  Optional k-point grid parameters
   LKPOINTS_OPT  =     F    use optional k-point grid
   KPOINTS_OPT_MODE=     1    mode for optional k-point grid

 Orbital magnetization related:
   ORBITALMAG=     F  switch on orbital magnetization
   LCHIMAG   =     F  perturbation theory with respect to B field
   DQ        =  0.001000  dq finite difference perturbation B field
   LLRAUG    =     F  two centre corrections for induced B field



--------------------------------------------------------------------------------------------------------


 Static calculation
 charge density and potential will be updated during run
 non-spin polarized calculation
 Conjugate gradient for all bands (Freysoldt, et al. PRB 79, 241103 (2009))
 preconditioned conjugated gradient
 perform sub-space diagonalisation
    before iterative eigenvector-optimisation
 modified Broyden-mixing scheme, WC =      100.0
 initial mixing is a Kerker type mixing with AMIX =  0.4000 and BMIX =      1.0000
 Hartree-type preconditioning will be used
 using additional bands           59
 reciprocal scheme for non local part
 use partial core corrections
 no Harris-corrections to forces
 use gradient corrections
 use of overlap-Matrix (Vanderbilt PP)
 Gauss-broadening in eV      SIGMA  =   0.05


--------------------------------------------------------------------------------------------------------


  energy-cutoff  :      600.00
  volume of cell :     1519.82
      direct lattice vectors                 reciprocal lattice vectors
     8.440984654  0.000000000  0.000000000     0.118469591  0.000000000  0.000000000
     0.000000000  8.440984654  0.000000000     0.000000000  0.118469591  0.000000000
     0.000000000  0.000000000 21.330738491     0.000000000  0.000000000  0.046880702

  length of vectors
     8.440984654  8.440984654 21.330738491     0.118469591  0.118469591  0.046880702



 k-points in units of 2pi/SCALE and weight: pymatgen v2020.8.13 with grid density =
   0.00000000  0.00000000  0.00000000       0.250
   0.05923480  0.00000000  0.00000000       0.500
   0.05923480  0.05923480  0.00000000       0.250

 k-points in reciprocal lattice and weights: pymatgen v2020.8.13 with grid density =
   0.00000000  0.00000000  0.00000000       0.250
   0.50000000  0.00000000  0.00000000       0.500
   0.50000000  0.50000000  0.00000000       0.250

 position of ions in fractional coordinates (direct lattice)
   0.50000000  0.50000000  0.76505380
   0.50000000  0.50000000  0.81881752

 position of ions in cartesian coordinates  (Angst):
   4.22049233  4.22049233 16.31916259
   4.22049233  4.22049233 17.46598241



--------------------------------------------------------------------------------------------------------


 k-point   1 :   0.0000 0.0000 0.0000  plane waves:   50745
 k-point   2 :   0.5000 0.0000 0.0000  plane waves:   50798
 k-point   3 :   0.5000 0.5000 0.0000  plane waves:   50752

 maximum and minimum number of plane-waves per node :      6394     6276

 maximum number of plane-waves:     50798
 maximum index in each direction:
   IXMAX=   16   IYMAX=   16   IZMAX=   42
   IXMIN=  -17   IYMIN=  -17   IZMIN=  -42


 parallel 3D FFT for wavefunctions:
    minimum data exchange during FFTs selected (reduces bandwidth)
 parallel 3D FFT for charge:
    minimum data exchange during FFTs selected (reduces bandwidth)


 FFT grid for exact exchange (Hartree Fock)
  NGX = 54; NGY = 54; NGZ =128


 Radii for the augmentation spheres in the non-local exchange
 for species   1 augmentation radius   0.874 (default was   0.699)
       energy cutoff for augmentation   2400.0
 for species   2 augmentation radius   0.902 (default was   0.722)
       energy cutoff for augmentation   2400.0

 real space projection operators:
  total allocation   :        102.23 KBytes
  max/ min on nodes  :         13.36         11.88

 Maximum index for augmentation-charges in exchange           92
  SETUP_FOCK is finished

 total amount of memory used by VASP MPI-rank0    48797. kBytes
=======================================================================

   base      :      30000. kBytes
   nonl-proj :       2689. kBytes
   fftplans  :       7742. kBytes
   grid      :       7379. kBytes
   one-center:          3. kBytes
   HF        :          4. kBytes
   nonlr-proj:         41. kBytes
   wavefun   :        939. kBytes

     INWAV:  cpu time      0.0001: real time      0.0001
 Broyden mixing: mesh for mixing (old mesh)
   NGX = 33   NGY = 33   NGZ = 85
  (NGX  =140   NGY  =140   NGZ  =360)
  gives a total of  92565 points

 initial charge density was supplied:
 charge density of overlapping atoms calculated
 number of electron      10.0000000 magnetization
 keeping initial charge density in first step


--------------------------------------------------------------------------------------------------------


 Maximum index for augmentation-charges            0 (set IRDMAX)


--------------------------------------------------------------------------------------------------------


    FEWALD:  cpu time      0.0005: real time      0.0005


--------------------------------------- Iteration      1(   1)  ---------------------------------------


    POTLOK:  cpu time      0.0753: real time      0.0757
    SETDIJ:  cpu time      0.0615: real time      0.0616
    TRIAL :  cpu time      0.3607: real time      0.3612
    CORREC:  cpu time      0.0003: real time      0.0003
    --------------------------------------------
      LOOP:  cpu time      0.4990: real time      0.5001

 eigenvalue-minimisations  :   384
 total energy-change (2. order) : 0.2925460E+02  (-0.3370379E+03)
 number of electron      10.0000000 magnetization
 augmentation part       10.0000000 magnetization

 DIPCOR: dipole corrections for dipol
 direction  3 min pos     1,
 dipolmoment           0.000000      0.000000     -0.000250 electrons x Angstroem
 Tr[quadrupol]      -355.254441

 energy correction for charged system         0.000000 eV
 dipol+quadrupol energy correction           -0.000000 eV
 added-field ion interaction          0.001889 eV  (added to PSCEN)


 Free energy of the ion-electron system (eV)
  ---------------------------------------------------
  alpha Z        PSCENC =         0.28939502
  Ewald energy   TEWEN  =       192.88447950
  -Hartree energ DENC   =      -654.07813843
  -exchange      EXHF   =         0.00000000
  -V(xc)+E(xc)   XCENC  =        39.18403306
  PAW double counting   =       455.07152327     -500.63835054
  entropy T*S    EENTRO =        -0.00000000
  eigenvalues    EBANDS =       -79.60338687
  atomic energy  EATOM  =       576.14504219
  ---------------------------------------------------
  free energy    TOTEN  =        29.25459720 eV

  energy without entropy =       29.25459720  energy(sigma->0) =       29.25459720
  exchange ACFDT corr.  =         0.00000000  see jH, gK, PRB 81, 115126


--------------------------------------------------------------------------------------------------------




--------------------------------------- Iteration      1(   2)  ---------------------------------------


    TRIAL :  cpu time      1.2730: real time      1.2741
    CORREC:  cpu time      0.0002: real time      0.0002
    --------------------------------------------
      LOOP:  cpu time      1.2803: real time      1.2862

 eigenvalue-minimisations  :   704
 total energy-change (2. order) :-0.9350735E+02  (-0.9350735E+02)
 number of electron      10.0000000 magnetization
 augmentation part       10.0000000 magnetization

 DIPCOR: dipole corrections for dipol
 direction  3 min pos     1,
 dipolmoment           0.000000      0.000000     -0.000250 electrons x Angstroem
 Tr[quadrupol]      -355.254441

 energy correction for charged system         0.000000 eV
 dipol+quadrupol energy correction           -0.000000 eV
 added-field ion interaction          0.001889 eV  (added to PSCEN)


 Free energy of the ion-electron system (eV)
  ---------------------------------------------------
  alpha Z        PSCENC =         0.28939502
  Ewald energy   TEWEN  =       192.88447950
  -Hartree energ DENC   =      -654.07813843
  -exchange      EXHF   =         0.00000000
  -V(xc)+E(xc)   XCENC  =        39.18403306
  PAW double counting   =       455.07152327     -500.63835054
  entropy T*S    EENTRO =        -0.00000000
  eigenvalues    EBANDS =      -173.11073328
  atomic energy  EATOM  =       576.14504219
  ---------------------------------------------------
  free energy    TOTEN  =       -64.25274921 eV

  energy without entropy =      -64.25274921  energy(sigma->0) =      -64.25274921
  exchange ACFDT corr.  =         0.00000000  see jH, gK, PRB 81, 115126


--------------------------------------------------------------------------------------------------------




--------------------------------------- Iteration      1(   3)  ---------------------------------------


    TRIAL :  cpu time      0.3628: real time      0.3628
    CORREC:  cpu time      0.0002: real time      0.0002
    --------------------------------------------
      LOOP:  cpu time      0.3753: real time      0.4628

 eigenvalue-minimisations  :   384
 total energy-change (2. order) :-0.6428164E+00  (-0.6428164E+00)
 number of electron      10.0000000 magnetization
 augmentation part       10.0000000 magnetization

 DIPCOR: dipole corrections for dipol
 direction  3 min pos     1,
 dipolmoment           0.000000      0.000000     -0.000250 electrons x Angstroem
 Tr[quadrupol]      -355.254441

 energy correction for charged system         0.000000 eV
 dipol+quadrupol energy correction           -0.000000 eV
 added-field ion interaction          0.001889 eV  (added to PSCEN)


 Free energy of the ion-electron system (eV)
  ---------------------------------------------------
  alpha Z        PSCENC =         0.28939502
  Ewald energy   TEWEN  =       192.88447950
  -Hartree energ DENC   =      -654.07813843
  -exchange      EXHF   =         0.00000000
  -V(xc)+E(xc)   XCENC  =        39.18403306
  PAW double counting   =       455.07152327     -500.63835054
  entropy T*S    EENTRO =        -0.00000000
  eigenvalues    EBANDS =      -173.75354970
  atomic energy  EATOM  =       576.14504219
  ---------------------------------------------------
  free energy    TOTEN  =       -64.89556563 eV

  energy without entropy =      -64.89556563  energy(sigma->0) =      -64.89556563
  exchange ACFDT corr.  =         0.00000000  see jH, gK, PRB 81, 115126


--------------------------------------------------------------------------------------------------------




--------------------------------------- Iteration      1(   4)  ---------------------------------------


    TRIAL :  cpu time      0.7200: real time      0.7204
    CORREC:  cpu time      0.0002: real time      0.0002
    --------------------------------------------
      LOOP:  cpu time      0.7326: real time      0.7332

 eigenvalue-minimisations  :   512
 total energy-change (2. order) :-0.2468508E-02  (-0.2468508E-02)
 number of electron      10.0000000 magnetization
 augmentation part       10.0000000 magnetization

 DIPCOR: dipole corrections for dipol
 direction  3 min pos     1,
 dipolmoment           0.000000      0.000000     -0.000250 electrons x Angstroem
 Tr[quadrupol]      -355.254441

 energy correction for charged system         0.000000 eV
 dipol+quadrupol energy correction           -0.000000 eV
 added-field ion interaction          0.001889 eV  (added to PSCEN)


 Free energy of the ion-electron system (eV)
  ---------------------------------------------------
  alpha Z        PSCENC =         0.28939502
  Ewald energy   TEWEN  =       192.88447950
  -Hartree energ DENC   =      -654.07813843
  -exchange      EXHF   =         0.00000000
  -V(xc)+E(xc)   XCENC  =        39.18403306
  PAW double counting   =       455.07152327     -500.63835054
  entropy T*S    EENTRO =        -0.00000000
  eigenvalues    EBANDS =      -173.75601821
  atomic energy  EATOM  =       576.14504219
  ---------------------------------------------------
  free energy    TOTEN  =       -64.89803414 eV

  energy without entropy =      -64.89803414  energy(sigma->0) =      -64.89803414
  exchange ACFDT corr.  =         0.00000000  see jH, gK, PRB 81, 115126


--------------------------------------------------------------------------------------------------------




--------------------------------------- Iteration      1(   5)  ---------------------------------------


    POTLOK:  cpu time      0.0912: real time      0.0912
    SETDIJ:  cpu time      0.2195: real time      0.2195
    TRIAL :  cpu time      5.7327: real time      5.7367
    CORREC:  cpu time      0.0002: real time      0.0002
    CHARGE:  cpu time      0.1482: real time      0.1487
    --------------------------------------------
      LOOP:  cpu time      6.2041: real time      6.2088

 eigenvalue-minimisations  :   384
 total energy-change (2. order) : 0.4578336E+02  (-0.5748258E-01)
 number of electron       9.9999999 magnetization
 augmentation part        0.7472686 magnetization

 DIPCOR: dipole corrections for dipol
 direction  3 min pos     1,
 dipolmoment           0.000000      0.000000     -0.000250 electrons x Angstroem
 Tr[quadrupol]      -355.254441

 energy correction for charged system         0.000000 eV
 dipol+quadrupol energy correction           -0.000000 eV
 added-field ion interaction          0.001889 eV  (added to PSCEN)


 Free energy of the ion-electron system (eV)
  ---------------------------------------------------
  alpha Z        PSCENC =         0.28939502
  Ewald energy   TEWEN  =       192.88447950
  -Hartree energ DENC   =      -654.07813843
  -exchange      EXHF   =        25.91106634
  -V(xc)+E(xc)   XCENC  =        31.28477771
  PAW double counting   =       462.37958447     -464.81341021
  entropy T*S    EENTRO =        -0.00000000
  eigenvalues    EBANDS =      -189.11747031
  atomic energy  EATOM  =       576.14504219
  ---------------------------------------------------
  free energy    TOTEN  =       -19.11467372 eV

  energy without entropy =      -19.11467372  energy(sigma->0) =      -19.11467372
  exchange ACFDT corr.  =         0.00000000  see jH, gK, PRB 81, 115126


--------------------------------------------------------------------------------------------------------




--------------------------------------- Iteration      1(   6)  ---------------------------------------


    POTLOK:  cpu time      0.0971: real time      0.0971
    SETDIJ:  cpu time      0.2160: real time      0.2160
    TRIAL :  cpu time     20.9155: real time     20.9258
    CORREC:  cpu time      5.7082: real time      5.7115
    CHARGE:  cpu time      0.1169: real time      0.1169
    --------------------------------------------
      LOOP:  cpu time     27.0585: real time     27.0792

 eigenvalue-minimisations  :     0
 total energy-change (2. order) : 0.2597295E+01  (-0.1194537E+01)
 number of electron      10.0000000 magnetization
 augmentation part        0.6845276 magnetization

 DIPCOR: dipole corrections for dipol
 direction  3 min pos     1,
 dipolmoment           0.000000      0.000000      0.104478 electrons x Angstroem
 Tr[quadrupol]      -353.549827

 energy correction for charged system         0.000000 eV
 dipol+quadrupol energy correction           -0.000650 eV
 added-field ion interaction         -0.788907 eV  (added to PSCEN)


 Free energy of the ion-electron system (eV)
  ---------------------------------------------------
  alpha Z        PSCENC =        -1.48309202
  Ewald energy   TEWEN  =       192.88447950
  -Hartree energ DENC   =      -706.86162569
  -exchange      EXHF   =        26.00051961
  -V(xc)+E(xc)   XCENC  =        33.66166248
  PAW double counting   =       852.53118366     -855.45713425
  entropy T*S    EENTRO =        -0.00000000
  eigenvalues    EBANDS =      -133.93841459
  atomic energy  EATOM  =       576.14504219
  ---------------------------------------------------
  free energy    TOTEN  =       -16.51737910 eV

  energy without entropy =      -16.51737910  energy(sigma->0) =      -16.51737910
  exchange ACFDT corr.  =        -0.00000000  see jH, gK, PRB 81, 115126


--------------------------------------------------------------------------------------------------------




--------------------------------------- Iteration      1(   7)  ---------------------------------------


    POTLOK:  cpu time      0.0974: real time      0.0975
    SETDIJ:  cpu time      0.2160: real time      0.2160
    TRIAL :  cpu time      5.3651: real time      5.3687
    CORREC:  cpu time      5.7016: real time      5.7047
    CHARGE:  cpu time      0.1163: real time      0.1168
    --------------------------------------------
      LOOP:  cpu time     11.5091: real time     11.5168

 eigenvalue-minimisations  :     0
 total energy-change (2. order) :-0.1202026E+01  (-0.2064636E+00)
 number of electron      10.0000000 magnetization
 augmentation part        0.6601649 magnetization

 DIPCOR: dipole corrections for dipol
 direction  3 min pos     1,
 dipolmoment           0.000000      0.000000      0.078321 electrons x Angstroem
 Tr[quadrupol]      -354.161204

 energy correction for charged system         0.000000 eV
 dipol+quadrupol energy correction           -0.000365 eV
 added-field ion interaction         -0.591391 eV  (added to PSCEN)


 Free energy of the ion-electron system (eV)
  ---------------------------------------------------
  alpha Z        PSCENC =        -0.77846488
  Ewald energy   TEWEN  =       192.88447950
  -Hartree energ DENC   =      -680.46466783
  -exchange      EXHF   =        25.08033180
  -V(xc)+E(xc)   XCENC  =        32.49724199
  PAW double counting   =       830.89108773     -833.58118916
  entropy T*S    EENTRO =        -0.00000000
  eigenvalues    EBANDS =      -160.39326691
  atomic energy  EATOM  =       576.14504219
  ---------------------------------------------------
  free energy    TOTEN  =       -17.71940557 eV

  energy without entropy =      -17.71940557  energy(sigma->0) =      -17.71940557
  exchange ACFDT corr.  =        -0.00000000  see jH, gK, PRB 81, 115126


--------------------------------------------------------------------------------------------------------




--------------------------------------- Iteration      1(   8)  ---------------------------------------


    POTLOK:  cpu time      0.1005: real time      0.1006
    SETDIJ:  cpu time      0.2159: real time      0.2159
    TRIAL :  cpu time      5.3467: real time      5.3504
    CORREC:  cpu time      5.7015: real time      5.7046
    CHARGE:  cpu time      0.1138: real time      0.1138
    --------------------------------------------
      LOOP:  cpu time     11.4910: real time     11.4980

 eigenvalue-minimisations  :     0
 total energy-change (2. order) :-0.2064197E+00  (-0.8057546E-01)
 number of electron      10.0000000 magnetization
 augmentation part        0.6550444 magnetization

 DIPCOR: dipole corrections for dipol
 direction  3 min pos     1,
 dipolmoment           0.000000      0.000000      0.013947 electrons x Angstroem
 Tr[quadrupol]      -355.008712

 energy correction for charged system         0.000000 eV
 dipol+quadrupol energy correction           -0.000012 eV
 added-field ion interaction         -0.105316 eV  (added to PSCEN)


 Free energy of the ion-electron system (eV)
  ---------------------------------------------------
  alpha Z        PSCENC =        -0.20563351
  Ewald energy   TEWEN  =       192.88447950
  -Hartree energ DENC   =      -678.00891014
  -exchange      EXHF   =        24.99294490
  -V(xc)+E(xc)   XCENC  =        32.38366549
  PAW double counting   =       833.53606599     -836.08473342
  entropy T*S    EENTRO =        -0.00000000
  eigenvalues    EBANDS =      -163.56874631
  atomic energy  EATOM  =       576.14504219
  ---------------------------------------------------
  free energy    TOTEN  =       -17.92582530 eV

  energy without entropy =      -17.92582530  energy(sigma->0) =      -17.92582530
  exchange ACFDT corr.  =         0.00000000  see jH, gK, PRB 81, 115126


--------------------------------------------------------------------------------------------------------




--------------------------------------- Iteration      1(   9)  ---------------------------------------


    POTLOK:  cpu time      0.0987: real time      0.0988
    SETDIJ:  cpu time      0.2161: real time      0.2161
    TRIAL :  cpu time      5.3161: real time      5.3194
    CORREC:  cpu time      5.7852: real time      5.7893
    CHARGE:  cpu time      0.1150: real time      0.1150
    --------------------------------------------
      LOOP:  cpu time     11.5434: real time     11.5511

 eigenvalue-minimisations  :     0
 total energy-change (2. order) :-0.8053488E-01  (-0.3176205E-01)
 number of electron      10.0000000 magnetization
 augmentation part        0.6554116 magnetization

 DIPCOR: dipole corrections for dipol
 direction  3 min pos     1,
 dipolmoment           0.000000      0.000000     -0.003863 electrons x Angstroem
 Tr[quadrupol]      -355.224824

 energy correction for charged system         0.000000 eV
 dipol+quadrupol energy correction           -0.000001 eV
 added-field ion interaction          0.029172 eV  (added to PSCEN)


 Free energy of the ion-electron system (eV)
  ---------------------------------------------------
  alpha Z        PSCENC =         0.20809144
  Ewald energy   TEWEN  =       192.88447950
  -Hartree energ DENC   =      -676.95700298
  -exchange      EXHF   =        24.94593066
  -V(xc)+E(xc)   XCENC  =        32.34052475
  PAW double counting   =       835.28085948     -837.79561180
  entropy T*S    EENTRO =        -0.00000000
  eigenvalues    EBANDS =      -165.05867343
  atomic energy  EATOM  =       576.14504219
  ---------------------------------------------------
  free energy    TOTEN  =       -18.00636018 eV

  energy without entropy =      -18.00636018  energy(sigma->0) =      -18.00636018
  exchange ACFDT corr.  =        -0.00000000  see jH, gK, PRB 81, 115126


--------------------------------------------------------------------------------------------------------




--------------------------------------- Iteration      1(  10)  ---------------------------------------


    POTLOK:  cpu time      0.0979: real time      0.0979
    SETDIJ:  cpu time      0.2160: real time      0.2160
    TRIAL :  cpu time      5.3318: real time      5.3348
    CORREC:  cpu time      5.8176: real time      5.8212
    CHARGE:  cpu time      0.1314: real time      0.1314
    --------------------------------------------
      LOOP:  cpu time     11.6067: real time     11.6137

 eigenvalue-minimisations  :     0
 total energy-change (2. order) :-0.3173779E-01  (-0.1313063E-01)
 number of electron      10.0000000 magnetization
 augmentation part        0.6556089 magnetization

 DIPCOR: dipole corrections for dipol
 direction  3 min pos     1,
 dipolmoment           0.000000      0.000000     -0.010492 electrons x Angstroem
 Tr[quadrupol]      -355.291155

 energy correction for charged system         0.000000 eV
 dipol+quadrupol energy correction           -0.000007 eV
 added-field ion interaction          0.079227 eV  (added to PSCEN)


 Free energy of the ion-electron system (eV)
  ---------------------------------------------------
  alpha Z        PSCENC =         0.36108816
  Ewald energy   TEWEN  =       192.88447950
  -Hartree energ DENC   =      -676.12384049
  -exchange      EXHF   =        24.90848526
  -V(xc)+E(xc)   XCENC  =        32.31165300
  PAW double counting   =       834.64840045     -837.16207153
  entropy T*S    EENTRO =        -0.00000000
  eigenvalues    EBANDS =      -166.01133451
  atomic energy  EATOM  =       576.14504219
  ---------------------------------------------------
  free energy    TOTEN  =       -18.03809796 eV

  energy without entropy =      -18.03809796  energy(sigma->0) =      -18.03809796
  exchange ACFDT corr.  =        -0.00000000  see jH, gK, PRB 81, 115126


--------------------------------------------------------------------------------------------------------




--------------------------------------- Iteration      1(  11)  ---------------------------------------


    POTLOK:  cpu time      0.0995: real time      0.0995
    SETDIJ:  cpu time      0.2156: real time      0.2161
    TRIAL :  cpu time      5.3598: real time      5.3627
    CORREC:  cpu time      5.7221: real time      5.7257
    CHARGE:  cpu time      0.1156: real time      0.1156
    --------------------------------------------
      LOOP:  cpu time     11.5251: real time     11.5324

 eigenvalue-minimisations  :     0
 total energy-change (2. order) :-0.1312102E-01  (-0.5183674E-02)
 number of electron      10.0000000 magnetization
 augmentation part        0.6562303 magnetization

 DIPCOR: dipole corrections for dipol
 direction  3 min pos     1,
 dipolmoment           0.000000      0.000000     -0.007541 electrons x Angstroem
 Tr[quadrupol]      -355.247035

 energy correction for charged system         0.000000 eV
 dipol+quadrupol energy correction           -0.000003 eV
 added-field ion interaction          0.056943 eV  (added to PSCEN)


 Free energy of the ion-electron system (eV)
  ---------------------------------------------------
  alpha Z        PSCENC =         0.36947988
  Ewald energy   TEWEN  =       192.88447950
  -Hartree energ DENC   =      -675.52774652
  -exchange      EXHF   =        24.88288290
  -V(xc)+E(xc)   XCENC  =        32.28970938
  PAW double counting   =       832.87652853     -835.39188131
  entropy T*S    EENTRO =        -0.00000000
  eigenvalues    EBANDS =      -166.57971353
  atomic energy  EATOM  =       576.14504219
  ---------------------------------------------------
  free energy    TOTEN  =       -18.05121898 eV

  energy without entropy =      -18.05121898  energy(sigma->0) =      -18.05121898
  exchange ACFDT corr.  =        -0.00000000  see jH, gK, PRB 81, 115126


--------------------------------------------------------------------------------------------------------




--------------------------------------- Iteration      1(  12)  ---------------------------------------


    POTLOK:  cpu time      0.1000: real time      0.1000
    SETDIJ:  cpu time      0.2204: real time      0.2204
    TRIAL :  cpu time      5.3499: real time      5.3538
    CORREC:  cpu time      5.6901: real time      5.6938
    CHARGE:  cpu time      0.1140: real time      0.1140
    --------------------------------------------
      LOOP:  cpu time     11.4868: real time     11.4946

 eigenvalue-minimisations  :     0
 total energy-change (2. order) :-0.5192326E-02  (-0.1584133E-02)
 number of electron      10.0000000 magnetization
 augmentation part        0.6565662 magnetization

 DIPCOR: dipole corrections for dipol
 direction  3 min pos     1,
 dipolmoment           0.000000      0.000000     -0.003358 electrons x Angstroem
 Tr[quadrupol]      -355.191772

 energy correction for charged system         0.000000 eV
 dipol+quadrupol energy correction           -0.000001 eV
 added-field ion interaction          0.025358 eV  (added to PSCEN)


 Free energy of the ion-electron system (eV)
  ---------------------------------------------------
  alpha Z        PSCENC =         0.33453329
  Ewald energy   TEWEN  =       192.88447950
  -Hartree energ DENC   =      -675.18047108
  -exchange      EXHF   =        24.86700102
  -V(xc)+E(xc)   XCENC  =        32.27439549
  PAW double counting   =       831.42201150     -833.94330179
  entropy T*S    EENTRO =        -0.00000000
  eigenvalues    EBANDS =      -166.86010143
  atomic energy  EATOM  =       576.14504219
  ---------------------------------------------------
  free energy    TOTEN  =       -18.05641131 eV

  energy without entropy =      -18.05641131  energy(sigma->0) =      -18.05641131
  exchange ACFDT corr.  =         0.00000000  see jH, gK, PRB 81, 115126


--------------------------------------------------------------------------------------------------------




--------------------------------------- Iteration      1(  13)  ---------------------------------------


    POTLOK:  cpu time      0.1009: real time      0.1010
    SETDIJ:  cpu time      0.2156: real time      0.2162
    TRIAL :  cpu time      5.3976: real time      5.4004
    CORREC:  cpu time      5.7850: real time      5.7887
    CHARGE:  cpu time      0.1136: real time      0.1136
    --------------------------------------------
      LOOP:  cpu time     11.6252: real time     11.6326

 eigenvalue-minimisations  :     0
 total energy-change (2. order) :-0.1581282E-02  (-0.4744413E-03)
 number of electron      10.0000000 magnetization
 augmentation part        0.6565092 magnetization

 DIPCOR: dipole corrections for dipol
 direction  3 min pos     1,
 dipolmoment           0.000000      0.000000     -0.000961 electrons x Angstroem
 Tr[quadrupol]      -355.161184

 energy correction for charged system         0.000000 eV
 dipol+quadrupol energy correction           -0.000000 eV
 added-field ion interaction          0.007260 eV  (added to PSCEN)


 Free energy of the ion-electron system (eV)
  ---------------------------------------------------
  alpha Z        PSCENC =         0.30605121
  Ewald energy   TEWEN  =       192.88447950
  -Hartree energ DENC   =      -675.02995496
  -exchange      EXHF   =        24.85997992
  -V(xc)+E(xc)   XCENC  =        32.26612715
  PAW double counting   =       830.74289238     -833.26790755
  entropy T*S    EENTRO =        -0.00000000
  eigenvalues    EBANDS =      -166.96470243
  atomic energy  EATOM  =       576.14504219
  ---------------------------------------------------
  free energy    TOTEN  =       -18.05799259 eV

  energy without entropy =      -18.05799259  energy(sigma->0) =      -18.05799259
  exchange ACFDT corr.  =        -0.00000000  see jH, gK, PRB 81, 115126


--------------------------------------------------------------------------------------------------------




--------------------------------------- Iteration      1(  14)  ---------------------------------------


    POTLOK:  cpu time      0.0979: real time      0.0980
    SETDIJ:  cpu time      0.2161: real time      0.2161
    TRIAL :  cpu time      5.3437: real time      5.3476
    CORREC:  cpu time      5.7035: real time      5.7064
    CHARGE:  cpu time      0.1138: real time      0.1138
    --------------------------------------------
      LOOP:  cpu time     11.4875: real time     11.4945

 eigenvalue-minimisations  :     0
 total energy-change (2. order) :-0.4744235E-03  (-0.1355865E-03)
 number of electron      10.0000000 magnetization
 augmentation part        0.6564104 magnetization

 DIPCOR: dipole corrections for dipol
 direction  3 min pos     1,
 dipolmoment           0.000000      0.000000      0.000087 electrons x Angstroem
 Tr[quadrupol]      -355.148197

 energy correction for charged system         0.000000 eV
 dipol+quadrupol energy correction           -0.000000 eV
 added-field ion interaction         -0.000659 eV  (added to PSCEN)


 Free energy of the ion-electron system (eV)
  ---------------------------------------------------
  alpha Z        PSCENC =         0.29043273
  Ewald energy   TEWEN  =       192.88447950
  -Hartree energ DENC   =      -674.95767277
  -exchange      EXHF   =        24.85693642
  -V(xc)+E(xc)   XCENC  =        32.26204672
  PAW double counting   =       830.38083018     -832.90668590
  entropy T*S    EENTRO =        -0.00000000
  eigenvalues    EBANDS =      -167.01387608
  atomic energy  EATOM  =       576.14504219
  ---------------------------------------------------
  free energy    TOTEN  =       -18.05846701 eV

  energy without entropy =      -18.05846701  energy(sigma->0) =      -18.05846701
  exchange ACFDT corr.  =        -0.00000000  see jH, gK, PRB 81, 115126


--------------------------------------------------------------------------------------------------------




--------------------------------------- Iteration      1(  15)  ---------------------------------------


    POTLOK:  cpu time      0.1043: real time      0.1049
    SETDIJ:  cpu time      0.2160: real time      0.2160
    TRIAL :  cpu time      5.3436: real time      5.3465
    CORREC:  cpu time      5.7816: real time      5.7852
    CHARGE:  cpu time      0.1155: real time      0.1155
    --------------------------------------------
      LOOP:  cpu time     11.5728: real time     11.5802

 eigenvalue-minimisations  :     0
 total energy-change (2. order) :-0.1388959E-03  (-0.4408319E-04)
 number of electron      10.0000000 magnetization
 augmentation part        0.6563753 magnetization

 DIPCOR: dipole corrections for dipol
 direction  3 min pos     1,
 dipolmoment           0.000000      0.000000      0.000394 electrons x Angstroem
 Tr[quadrupol]      -355.144823

 energy correction for charged system         0.000000 eV
 dipol+quadrupol energy correction           -0.000000 eV
 added-field ion interaction         -0.002978 eV  (added to PSCEN)


 Free energy of the ion-electron system (eV)
  ---------------------------------------------------
  alpha Z        PSCENC =         0.28498050
  Ewald energy   TEWEN  =       192.88447950
  -Hartree energ DENC   =      -674.96456266
  -exchange      EXHF   =        24.85716821
  -V(xc)+E(xc)   XCENC  =        32.26200907
  PAW double counting   =       830.25270496     -832.77837890
  entropy T*S    EENTRO =        -0.00000000
  eigenvalues    EBANDS =      -167.00204879
  atomic energy  EATOM  =       576.14504219
  ---------------------------------------------------
  free energy    TOTEN  =       -18.05860591 eV

  energy without entropy =      -18.05860591  energy(sigma->0) =      -18.05860591
  exchange ACFDT corr.  =        -0.00000000  see jH, gK, PRB 81, 115126


--------------------------------------------------------------------------------------------------------




--------------------------------------- Iteration      1(  16)  ---------------------------------------


    POTLOK:  cpu time      0.0986: real time      0.0987
    SETDIJ:  cpu time      0.2161: real time      0.2161
    TRIAL :  cpu time      5.3225: real time      5.3262
    CORREC:  cpu time      5.6948: real time      5.6980
    CHARGE:  cpu time      0.1150: real time      0.1150
    --------------------------------------------
      LOOP:  cpu time     11.4592: real time     11.4665

 eigenvalue-minimisations  :     0
 total energy-change (2. order) :-0.4457254E-04  (-0.1850823E-04)
 number of electron      10.0000000 magnetization
 augmentation part        0.6563729 magnetization

 DIPCOR: dipole corrections for dipol
 direction  3 min pos     1,
 dipolmoment           0.000000      0.000000      0.000369 electrons x Angstroem
 Tr[quadrupol]      -355.145538

 energy correction for charged system         0.000000 eV
 dipol+quadrupol energy correction           -0.000000 eV
 added-field ion interaction         -0.002790 eV  (added to PSCEN)


 Free energy of the ion-electron system (eV)
  ---------------------------------------------------
  alpha Z        PSCENC =         0.28432341
  Ewald energy   TEWEN  =       192.88447950
  -Hartree energ DENC   =      -674.97695606
  -exchange      EXHF   =        24.85766144
  -V(xc)+E(xc)   XCENC  =        32.26224136
  PAW double counting   =       830.20629482     -832.73196729
  entropy T*S    EENTRO =        -0.00000000
  eigenvalues    EBANDS =      -166.98976986
  atomic energy  EATOM  =       576.14504219
  ---------------------------------------------------
  free energy    TOTEN  =       -18.05865048 eV

  energy without entropy =      -18.05865048  energy(sigma->0) =      -18.05865048
  exchange ACFDT corr.  =        -0.00000000  see jH, gK, PRB 81, 115126


--------------------------------------------------------------------------------------------------------




--------------------------------------- Iteration      1(  17)  ---------------------------------------


    POTLOK:  cpu time      0.0987: real time      0.0993
    SETDIJ:  cpu time      0.2174: real time      0.2174
    TRIAL :  cpu time      5.3594: real time      5.3624
    CORREC:  cpu time      5.7382: real time      5.7420
    CHARGE:  cpu time      0.1437: real time      0.1438
    --------------------------------------------
      LOOP:  cpu time     11.5700: real time     11.5777

 eigenvalue-minimisations  :     0
 total energy-change (2. order) :-0.1679265E-04  (-0.5315552E-05)
 number of electron      10.0000000 magnetization
 augmentation part        0.6563847 magnetization

 DIPCOR: dipole corrections for dipol
 direction  3 min pos     1,
 dipolmoment           0.000000      0.000000      0.000301 electrons x Angstroem
 Tr[quadrupol]      -355.146680

 energy correction for charged system         0.000000 eV
 dipol+quadrupol energy correction           -0.000000 eV
 added-field ion interaction         -0.002274 eV  (added to PSCEN)


 Free energy of the ion-electron system (eV)
  ---------------------------------------------------
  alpha Z        PSCENC =         0.28501759
  Ewald energy   TEWEN  =       192.88447950
  -Hartree energ DENC   =      -674.98842083
  -exchange      EXHF   =        24.85811983
  -V(xc)+E(xc)   XCENC  =        32.26293714
  PAW double counting   =       830.19337419     -832.71912220
  entropy T*S    EENTRO =        -0.00000000
  eigenvalues    EBANDS =      -166.98009469
  atomic energy  EATOM  =       576.14504219
  ---------------------------------------------------
  free energy    TOTEN  =       -18.05866728 eV

  energy without entropy =      -18.05866728  energy(sigma->0) =      -18.05866728
  exchange ACFDT corr.  =        -0.00000000  see jH, gK, PRB 81, 115126


--------------------------------------------------------------------------------------------------------




--------------------------------------- Iteration      1(  18)  ---------------------------------------


    POTLOK:  cpu time      0.1005: real time      0.1006
    SETDIJ:  cpu time      0.2162: real time      0.2162
    TRIAL :  cpu time      5.3523: real time      5.3560
    CORREC:  cpu time      5.6717: real time      5.6753
    EDDIAG:  cpu time      5.3071: real time      5.3107
    CHARGE:  cpu time      0.1158: real time      0.1158
    --------------------------------------------
      LOOP:  cpu time     16.7767: real time     16.7881

 eigenvalue-minimisations  :     0
 total energy-change (2. order) :-0.5200154E-05  (-0.1369855E-05)
 number of electron      10.0000000 magnetization
 augmentation part        0.6563958 magnetization

 DIPCOR: dipole corrections for dipol
 direction  3 min pos     1,
 dipolmoment           0.000000      0.000000      0.000290 electrons x Angstroem
 Tr[quadrupol]      -355.146853

 energy correction for charged system         0.000000 eV
 dipol+quadrupol energy correction           -0.000000 eV
 added-field ion interaction         -0.002189 eV  (added to PSCEN)


 Free energy of the ion-electron system (eV)
  ---------------------------------------------------
  alpha Z        PSCENC =         0.28526850
  Ewald energy   TEWEN  =       192.88447950
  -Hartree energ DENC   =      -674.99538065
  -exchange      EXHF   =        24.85850468
  -V(xc)+E(xc)   XCENC  =        32.26330388
  PAW double counting   =       830.19571212     -832.72152577
  entropy T*S    EENTRO =        -0.00000000
  eigenvalues    EBANDS =      -166.97398261
  atomic energy  EATOM  =       576.14504219
  ---------------------------------------------------
  free energy    TOTEN  =       -18.05867248 eV

  energy without entropy =      -18.05867248  energy(sigma->0) =      -18.05867248
  exchange ACFDT corr.  =        -0.00000000  see jH, gK, PRB 81, 115126


--------------------------------------------------------------------------------------------------------


  average scaling for gradient   1.0242


 average (electrostatic) potential at core
  the test charge radii are     0.6991  0.7215
  (the norm of the test charge is              1.0000)
       1 -58.3910       2 -78.1874



 E-fermi : -10.1349     XC(G=0):  -0.3158     alpha+bet : -0.1154

 Fermi energy:       -10.1349495885

 k-point     1 :       0.0000    0.0000    0.0000
  band No.  band energies     occupation
      1     -31.6411      2.00000
      2     -15.6641      2.00000
      3     -12.8874      2.00000
      4     -12.8874      2.00000
      5     -10.4057      2.00000
      6      -1.1416      0.00000
      7      -1.1416      0.00000
      8      -0.0952      0.00000
      9       0.2986      0.00000
     10       0.3368      0.00000
     11       1.2074      0.00000
     12       1.3022      0.00000
     13       1.8914      0.00000
     14       1.8914      0.00000
     15       1.8917      0.00000
     16       2.1778      0.00000
     17       2.3802      0.00000
     18       2.3915      0.00000
     19       2.3915      0.00000
     20       2.3936      0.00000
     21       2.4762      0.00000
     22       2.4762      0.00000
     23       2.4868      0.00000
     24       2.5543      0.00000
     25       2.7956      0.00000
     26       2.9433      0.00000
     27       3.3339      0.00000
     28       3.3339      0.00000
     29       3.3414      0.00000
     30       3.3795      0.00000
     31       3.4152      0.00000
     32       3.4402      0.00000
     33       3.4402      0.00000
     34       3.5238      0.00000
     35       3.5526      0.00000
     36       4.0458      0.00000
     37       4.0458      0.00000
     38       4.3187      0.00000
     39       4.4683      0.00000
     40       4.5143      0.00000
     41       4.5143      0.00000
     42       4.5412      0.00000
     43       4.5449      0.00000
     44       4.5676      0.00000
     45       4.5676      0.00000
     46       4.6151      0.00000
     47       4.8947      0.00000
     48       4.9646      0.00000
     49       4.9646      0.00000
     50       5.0268      0.00000
     51       5.0466      0.00000
     52       5.0697      0.00000
     53       5.0697      0.00000
     54       5.1703      0.00000
     55       5.2460      0.00000
     56       5.2671      0.00000
     57       5.3948      0.00000
     58       5.4277      0.00000
     59       5.4889      0.00000
     60       5.4889      0.00000
     61       5.5199      0.00000
     62       5.5479      0.00000
     63       5.5479      0.00000
     64       5.8228      0.00000

 k-point     2 :       0.5000    0.0000    0.0000
  band No.  band energies     occupation
      1     -31.6411      2.00000
      2     -15.6641      2.00000
      3     -12.8875      2.00000
      4     -12.8874      2.00000
      5     -10.4056      2.00000
      6      -1.1702      0.00000
      7      -1.1392      0.00000
      8       0.4018      0.00000
      9       0.4905      0.00000
     10       0.7788      0.00000
     11       0.8500      0.00000
     12       0.8510      0.00000
     13       0.9291      0.00000
     14       1.6650      0.00000
     15       1.7992      0.00000
     16       1.8349      0.00000
     17       1.8937      0.00000
     18       2.2685      0.00000
     19       2.4416      0.00000
     20       2.5820      0.00000
     21       2.6196      0.00000
     22       2.8955      0.00000
     23       2.9107      0.00000
     24       2.9231      0.00000
     25       2.9601      0.00000
     26       2.9746      0.00000
     27       2.9849      0.00000
     28       3.0197      0.00000
     29       3.0250      0.00000
     30       3.2308      0.00000
     31       3.4486      0.00000
     32       3.4786      0.00000
     33       3.5276      0.00000
     34       3.8037      0.00000
     35       3.8435      0.00000
     36       3.8848      0.00000
     37       3.9060      0.00000
     38       3.9465      0.00000
     39       3.9526      0.00000
     40       3.9584      0.00000
     41       3.9891      0.00000
     42       4.5434      0.00000
     43       4.7110      0.00000
     44       5.0339      0.00000
     45       5.0397      0.00000
     46       5.0627      0.00000
     47       5.0917      0.00000
     48       5.2758      0.00000
     49       5.4153      0.00000
     50       5.5085      0.00000
     51       5.5560      0.00000
     52       5.5612      0.00000
     53       5.5812      0.00000
     54       5.6109      0.00000
     55       5.6297      0.00000
     56       5.6840      0.00000
     57       5.7499      0.00000
     58       5.8014      0.00000
     59       5.8299      0.00000
     60       5.9762      0.00000
     61       6.0003      0.00000
     62       6.0587      0.00000
     63       6.0756      0.00000
     64       6.0900      0.00000

 k-point     3 :       0.5000    0.5000    0.0000
  band No.  band energies     occupation
      1     -31.6411      2.00000
      2     -15.6641      2.00000
      3     -12.8875      2.00000
      4     -12.8875      2.00000
      5     -10.4055      2.00000
      6      -1.1640      0.00000
      7      -1.1640      0.00000
      8       0.9335      0.00000
      9       0.9335      0.00000
     10       0.9507      0.00000
     11       1.0397      0.00000
     12       1.2243      0.00000
     13       1.3543      0.00000
     14       1.3543      0.00000
     15       1.3902      0.00000
     16       1.3998      0.00000
     17       1.4420      0.00000
     18       1.4420      0.00000
     19       1.4594      0.00000
     20       2.1160      0.00000
     21       2.3255      0.00000
     22       2.3255      0.00000
     23       2.3399      0.00000
     24       2.3944      0.00000
     25       2.4021      0.00000
     26       2.4021      0.00000
     27       2.4191      0.00000
     28       3.6000      0.00000
     29       3.9338      0.00000
     30       3.9579      0.00000
     31       3.9579      0.00000
     32       4.0283      0.00000
     33       4.0283      0.00000
     34       4.0367      0.00000
     35       4.0608      0.00000
     36       4.2182      0.00000
     37       4.7191      0.00000
     38       4.9600      0.00000
     39       4.9600      0.00000
     40       5.1846      0.00000
     41       5.1846      0.00000
     42       5.2741      0.00000
     43       5.4124      0.00000
     44       5.4969      0.00000
     45       5.5117      0.00000
     46       5.5255      0.00000
     47       5.5342      0.00000
     48       5.5352      0.00000
     49       5.5352      0.00000
     50       5.5776      0.00000
     51       5.5776      0.00000
     52       5.6002      0.00000
     53       5.6002      0.00000
     54       5.6157      0.00000
     55       5.6201      0.00000
     56       5.6667      0.00000
     57       5.6667      0.00000
     58       5.6815      0.00000
     59       5.7268      0.00000
     60       6.0760      0.00000
     61       6.2209      0.00000
     62       6.2217      0.00000
     63       6.2382      0.00000
     64       6.3257      0.00000


--------------------------------------------------------------------------------------------------------


 soft charge-density along one line, spin component           1
         0         1         2         3         4         5         6         7         8         9
 total charge-density along one line

 pseudopotential strength for first ion, spin component:           1
 10.168  13.522   0.000   0.018   0.000  -0.000  -0.060  -0.000
 13.522  17.981   0.000   0.024   0.000  -0.000  -0.078  -0.000
  0.000   0.000  -4.483  -0.000  -0.000   8.803   0.000   0.000
  0.018   0.024  -0.000  -4.438   0.000   0.000   8.688  -0.000
  0.000   0.000  -0.000   0.000  -4.483   0.000  -0.000   8.803
 -0.000  -0.000   8.803   0.000   0.000 -19.422  -0.000  -0.000
 -0.060  -0.078   0.000   8.688  -0.000  -0.000 -19.141   0.000
 -0.000  -0.000   0.000  -0.000   8.803  -0.000   0.000 -19.422
 total augmentation occupancy for first ion, spin component:           1
  6.764  -3.052   0.000   2.141   0.000   0.000   0.380   0.000
 -3.052   1.817   0.000  -1.641   0.000   0.000  -0.225   0.000
  0.000   0.000   0.790   0.000   0.000   0.058   0.000   0.000
  2.141  -1.641   0.000   2.216   0.000   0.000   0.201  -0.000
  0.000   0.000   0.000   0.000   0.790   0.000   0.000   0.058
  0.000   0.000   0.058   0.000   0.000   0.004   0.000   0.000
  0.380  -0.225   0.000   0.201   0.000   0.000   0.028   0.000
  0.000   0.000   0.000  -0.000   0.058   0.000   0.000   0.004


------------------------ aborting loop because EDIFF is reached ----------------------------------------


    FORLOC:  cpu time      0.0022: real time      0.0022
    FORHF :  cpu time      0.6358: real time      0.6362
    FORNL :  cpu time      0.0124: real time      0.0124
    STRESS:  cpu time      0.0898: real time      0.0899
    FORCOR:  cpu time      0.0741: real time      0.0742
    OFIELD:  cpu time      0.0007: real time      0.0007

  DFT-D2 method for vdW energy calculation
  -------------------------------------------------------------------

  Parameters of vdW forcefield:
         C6(Jnm^6/mol)     R0(A)
   -----------------------------
   C        1.750          1.452
   O        0.700          1.342

  vdW correction parametrized for the method   `	   

  IVDW =   1
  VDW_RADIUS =    50.000 A
  VDW_S6 =     1.050
  VDW_SR =     1.000
  VDW_D =    20.000
  LVDW_EWALD = F

  Number of pair interactions contributing to vdW energy:    1045
  Edisp (eV):   -0.00036
    FORVDW:  cpu time      0.0014: real time      0.0015

  FORCE on cell =-STRESS in cart. coord.  units (eV):
  Direction    XX          YY          ZZ          XY          YZ          ZX
  --------------------------------------------------------------------------------------
  Alpha Z     0.28751     0.28751     0.28751
  Ewald      56.20538    56.20538    80.47363     0.00000     0.00000    -0.00000
  Hartree   280.09353   280.09353   114.81050    -0.00000    -0.00000    -0.00000
  E(xc)     -35.86188   -35.86188   -34.68503    -0.00000     0.00000    -0.00000
  Local    -470.69552  -470.69552  -305.11007     0.00000     0.00000    -0.00000
  n-local   -14.78896   -14.78911   -24.54479    -0.00000    -0.00000     0.00000
  augment     6.10364     6.10364     5.63680    -0.00000     0.00000    -0.00000
  Kinetic   190.35363   190.35360   175.17392     0.00000     0.00000    -0.00000
  Fock      -11.76041   -11.76036   -14.23119     0.00000     0.00000     0.00000
  vdW        -0.00096    -0.00096     0.00005     0.00000    -0.00000    -0.00000
  -------------------------------------------------------------------------------------
  Total      -0.06411    -0.06411    -2.18867     0.00000    -0.00000     0.00000
  in kB      -0.06758    -0.06758    -2.30727     0.00000    -0.00000     0.00000
  external pressure =       -0.81 kB  Pullay stress =        0.00 kB


 VOLUME and BASIS-vectors are now :
 -----------------------------------------------------------------------------
  energy-cutoff  :      600.00
  volume of cell :     1519.82
      direct lattice vectors                 reciprocal lattice vectors
     8.440984654  0.000000000  0.000000000     0.118469591  0.000000000  0.000000000
     0.000000000  8.440984654  0.000000000     0.000000000  0.118469591  0.000000000
     0.000000000  0.000000000 21.330738491     0.000000000  0.000000000  0.046880702

  length of vectors
     8.440984654  8.440984654 21.330738491     0.118469591  0.118469591  0.046880702


 FORCES acting on ions:
    Electron-Ion                     Ewald-Force                    Non-Local-Force
 -----------------------------------------------------------------------------------------------
   0.836E-13 0.327E-12 0.238E+03   0.268E-16 0.104E-15 -.265E+03   -.662E-23 -.993E-23 0.276E+02
   0.362E-12 0.682E-12 -.206E+03   0.145E-15 -.631E-17 0.265E+03   0.000E+00 0.000E+00 -.542E+02
 -----------------------------------------------------------------------------------------------
   0.446E-12 0.101E-11 0.320E+02   0.171E-15 0.981E-16 0.000E+00   -.662E-23 -.993E-23 -.266E+02


 POSITION                                       TOTAL-FORCE (eV/Angst)
 -----------------------------------------------------------------------------------
      4.22049      4.22049     16.31916         0.000000     -0.000000      1.844141
      4.22049      4.22049     17.46598         0.000000      0.000000     -1.844141
 -----------------------------------------------------------------------------------
    total drift:                                0.000000      0.000000     -0.004845


--------------------------------------------------------------------------------------------------------



  FREE ENERGIE OF THE ION-ELECTRON SYSTEM (eV)
  ---------------------------------------------------
  free  energy   TOTEN  =       -18.05903718 eV

  energy  without entropy=      -18.05903718  energy(sigma->0) =      -18.05903718



--------------------------------------------------------------------------------------------------------


    POTLOK:  cpu time      0.3007: real time      0.3007


--------------------------------------------------------------------------------------------------------


     LOOP+:  cpu time    181.1479: real time    181.4263
    4ORBIT:  cpu time      0.0000: real time      0.0000

 total amount of memory used by VASP MPI-rank0   161490. kBytes
=======================================================================

   base      :      30000. kBytes
   nonl-proj :       2689. kBytes
   fftplans  :       7742. kBytes
   grid      :       7379. kBytes
   one-center:          3. kBytes
   HF        :          4. kBytes
   nonlr-proj:        275. kBytes
   wavefun   :        939. kBytes
   fock_wrk  :     112459. kBytes



 General timing and accounting informations for this job:
 ========================================================

                  Total CPU time used (sec):      214.170
                            User time (sec):      212.538
                          System time (sec):        1.631
                         Elapsed time (sec):      227.344

                   Maximum memory used (kb):      338272.
                   Average memory used (kb):          N/A

                          Minor page faults:       121838
                          Major page faults:         1183
                 Voluntary context switches:        11196
