
                                 *****************
                                 * O   R   C   A *
                                 *****************

                                            #,
                                            ###
                                            ####
                                            #####
                                            ######
                                           ########,
                                     ,,################,,,,,
                               ,,#################################,,
                          ,,##########################################,,
                       ,#########################################, ''#####,
                    ,#############################################,,   '####,
                  ,##################################################,,,,####,
                ,###########''''           ''''###############################
              ,#####''   ,,,,##########,,,,          '''####'''          '####
            ,##' ,,,,###########################,,,                        '##
           ' ,,###''''                  '''############,,,
         ,,##''                                '''############,,,,        ,,,,,,###''
      ,#''                                            '''#######################'''
     '                                                          ''''####''''
             ,#######,   #######,   ,#######,      ##
            ,#'     '#,  ##    ##  ,#'     '#,    #''#        ,####,   ,####,
            ##       ##  ##   ,#'  ##            #'  '#       #'       #'  '#
            ##       ##  #######   ##           ,######,      #####,   #    #
            '#,     ,#'  ##    ##  '#,     ,#' ,#      #,     #,   #   #,  ,#
             '#######'   ##     ##  '#######'  #'      '#     '####' # '####'



                #########################################################
                #                        -***-                          #
                #          Department of theory and spectroscopy        #
                #                                                       #
                #                      Frank Neese                      #
                #                                                       #
                #     Directorship, Architecture, Infrastructure        #
                #                    SHARK, DRIVERS                     #
                #        Core code/Algorithms in most modules           #
                #                                                       #
                #        Max Planck Institute fuer Kohlenforschung      #
                #                Kaiser Wilhelm Platz 1                 #
                #                 D-45470 Muelheim/Ruhr                 #
                #                      Germany                          #
                #                                                       #
                #                  All rights reserved                  #
                #                        -***-                          #
                #########################################################


                         Program Version 6.0.0  -   RELEASE  -


 With contributions from (in alphabetic order):
   Daniel Aravena         : Magnetic Suceptibility
   Michael Atanasov       : Ab Initio Ligand Field Theory (pilot matlab implementation)
   Alexander A. Auer      : GIAO ZORA, VPT2 properties, NMR spectrum
   Ute Becker             : All parallelization in ORCA, NUMFREQ, NUMCALC
   Giovanni Bistoni       : ED, misc. LED, open-shell LED, HFLD
   Martin Brehm           : Molecular dynamics
   Dmytro Bykov           : pre 5.0 version of the SCF Hessian
   Marcos Casanova-Páez   : Triplet and SCS-CIS(D). UHF-(DLPNO)-IP/EA/STEOM-CCSD. UHF-CVS-IP/STEOM-CCSD
   Vijay G. Chilkuri      : MRCI spin determinant printing, contributions to CSF-ICE
   Pauline Colinet        : FMM embedding
   Dipayan Datta          : RHF DLPNO-CCSD density
   Achintya Kumar Dutta   : EOM-CC, STEOM-CC
   Nicolas Foglia         : Exact transition moments, OPA infrastructure, MCD improvements
   Dmitry Ganyushin       : Spin-Orbit,Spin-Spin,Magnetic field MRCI
   Miquel Garcia          : C-PCM and meta-GGA Hessian, CCSD/C-PCM, Gaussian charge scheme
   Tiago L. C. Gouveia    : GS-ROHF, GS-ROCIS
   Yang Guo               : DLPNO-NEVPT2, F12-NEVPT2, CIM, IAO-localization
   Andreas Hansen         : Spin unrestricted coupled pair/coupled cluster methods
   Ingolf Harden          : AUTO-CI MPn and infrastructure
   Benjamin Helmich-Paris : MC-RPA, TRAH-(SCF,CASSCF), AVAS, COSX integrals, SCF dyn. polar.
   Lee Huntington         : MR-EOM, pCC
   Robert Izsak           : Overlap fitted RIJCOSX, COSX-SCS-MP3, EOM
   Riya Kayal             : Wick's Theorem for AUTO-CI, AUTO-CI UHF-CCSDT
   Emily Kempfer          : AUTO-CI, RHF CISDT and CCSDT
   Christian Kollmar      : KDIIS, OOCD, Brueckner-CCSD(T), CCSD density, CASPT2, CASPT2-K, improved NEVPT2
   Axel Koslowski         : Symmetry handling
   Simone Kossmann        : Meta GGA functionals, TD-DFT gradient, OOMP2, (MP2 Hessian; deprecated post 5.0)
   Lucas Lang             : DCDCAS
   Marvin Lechner         : AUTO-CI (C++ implementation), FIC-MRCC
   Spencer Leger          : CASSCF response
   Dagmar Lenk            : GEPOL surface, SMD, ORCA-2-JSON
   Dimitrios Liakos       : Extrapolation schemes; Compound Job, initial MDCI parallelization
   Dimitrios Manganas     : Further ROCIS development; embedding schemes. LFT, Crystal Embedding
   Dimitrios Pantazis     : SARC Basis sets
   Anastasios Papadopoulos: AUTO-CI, single reference methods and gradients
   Taras Petrenko         : pre 6.0 DFT Hessian and TD-DFT gradient, (ASA, deprecated), ECA, 1-Electron XAS/XES, NRVS
   Peter Pinski           : DLPNO-MP2, DLPNO-MP2 Gradient
   Christoph Reimann      : Effective Core Potentials
   Marius Retegan         : Local ZFS, SOC
   Christoph Riplinger    : Optimizer, TS searches, QM/MM, DLPNO-CCSD(T), (RO)-DLPNO pert. Triples
   Michael Roemelt        : Original ROCIS implementation
   Masaaki Saitow         : Open-shell DLPNO-CCSD energy and density
   Barbara Sandhoefer     : DKH picture change effects
   Kantharuban Sivalingam : CASSCF convergence/infrastructure, NEVPT2 and variants, FIC-MRCI
   Bernardo de Souza      : ESD, SOC TD-DFT
   Georgi Stoychev        : AutoAux, RI-MP2 NMR, DLPNO-MP2 response, X2C
   Van Anh Tran           : RI-MP2 g-tensors
   Willem Van den Heuvel  : Paramagnetic NMR
   Zikuan Wang            : NOTCH, Electric field optimization
   Frank Wennmohs         : Technical directorship and infrastructure
   Hang Xu                : AUTO-CI-Response properties


 We gratefully acknowledge several colleagues who have allowed us to
 interface, adapt or use parts of their codes:
   Stefan Grimme, W. Hujo, H. Kruse, P. Pracht,  : VdW corrections, initial TS optimization,
                  C. Bannwarth, S. Ehlert,         DFT functionals, gCP, sTDA/sTD-DF
                  L. Wittmann, M. Mueller
   Ed Valeev, F. Pavosevic, A. Kumar             : LibInt (2-el integral package), F12 methods
   Garnet Chan, S. Sharma, J. Yang, R. Olivares  : DMRG
   Ulf Ekstrom                                   : XCFun DFT Library
   Mihaly Kallay                                 : mrcc  (arbitrary order and MRCC methods)
   Frank Weinhold                                : gennbo (NPA and NBO analysis)
   Simon Mueller                                 : openCOSMO-RS
   Christopher J. Cramer and Donald G. Truhlar   : smd solvation model
   Lars Goerigk                                  : TD-DFT with DH, B97 family of functionals
   V. Asgeirsson, H. Jonsson                     : NEB implementation
   FAccTs GmbH                                   : IRC, NEB, NEB-TS, DLPNO-Multilevel, CI-OPT
                                                   MM, QMMM, 2- and 3-layer-ONIOM, Crystal-QMMM,
                                                   LR-CPCM, SF, NACMEs, symmetry and pop. for TD-DFT,
                                                   nearIR, NL-DFT gradient (VV10), updates on ESD,
                                                   ML-optimized integration grids, MBIS, APM,
                                                   GOAT, DOCKER, SOLVATOR, interface openCOSMO-RS
   S Lehtola, MJT Oliveira, MAL Marques          : LibXC Library
   Liviu Ungur et al                             : ANISO software


 Your calculation uses the libint2 library for the computation of 2-el integrals
 For citations please refer to: http://libint.valeyev.net

 Your ORCA version has been built with support for libXC version: 6.2.2
 For citations please refer to: https://libxc.gitlab.io

 This ORCA versions uses:
   CBLAS   interface :  Fast vector & matrix operations
   LAPACKE interface :  Fast linear algebra routines
   SCALAPACK package :  Parallel linear algebra routines
   Shared memory     :  Shared parallel matrices
   BLAS/LAPACK       :  OpenBLAS 0.3.27  USE64BITINT DYNAMIC_ARCH NO_AFFINITY Haswell SINGLE_THREADED
        Core in use  :  Haswell
   Copyright (c) 2011-2014, The OpenBLAS Project


NOTE: MaxCore=25000 MB was set to SCF,MP2,MDCI,CIPSI,MRCI and CIS
      => If you want to overwrite this, your respective input block should be placed after the MaxCore statement
Setting NCore(C ) from 2 to 2
Setting NCore(Mg) from 2 to 10
Setting NCore(O ) from 2 to 2
SCAN-COORDS
================================================================================

----- Orbital basis set information -----
Your calculation utilizes the basis: def2-SVP
   F. Weigend and R. Ahlrichs, Phys. Chem. Chem. Phys. 7, 3297 (2005).

The basis set includes element-specific modifications.

Your calculation utilizes the basis: aug-cc-pVDZ
    H, B-Ne : Obtained from the ccRepo (grant-hill.group.shef.ac.uk/ccrepo) Feb. 2017
              R. A. Kendall, T. H. Dunning, Jr., R. J. Harrison, J. Chem. Phys. 96, 6796 (1992)
         He : Obtained from the ccRepo (grant-hill.group.shef.ac.uk/ccrepo) Feb. 2017
              D. E. Woon, T. H. Dunning, Jr., J. Chem. Phys. 100, 2975 (1994)
  Li-Be, Na : Obtained from the ccRepo (grant-hill.group.shef.ac.uk/ccrepo) Feb. 2017
              B. P. Prascher, D. E. Woon, K. A. Peterson, T. H. Dunning, Jr., A. K. Wilson, Theor. Chem. Acc. 128, 69 (2011)
         Mg : Obtained from the Peterson Research Group Website (tyr0.chem.wsu.edu/~kipeters) Feb. 2017
              B. P. Prascher, D. E. Woon, K. A. Peterson, T. H. Dunning, Jr., A. K. Wilson, Theor. Chem. Acc. 128, 69 (2011)
      Al-Ar : Obtained from the ccRepo (grant-hill.group.shef.ac.uk/ccrepo) Feb. 2017
              D. E. Woon, T. H. Dunning, Jr., J. Chem. Phys. 98, 1358 (1993)
      Sc-Zn : Obtained from the ccRepo (grant-hill.group.shef.ac.uk/ccrepo) Feb. 2017
              N. B. Balabanov, K. A. Peterson, J. Chem. Phys. 123, 064107 (2005)
              N. B. Balabanov, K. A. Peterson, J. Chem. Phys. 125, 074110 (2006)
      Ga-Kr : Obtained from the ccRepo (grant-hill.group.shef.ac.uk/ccrepo) Feb. 2017
              A. K. Wilson, D. E. Woon, K. A. Peterson, T. H. Dunning, Jr., J. Chem. Phys. 110, 7667 (1999)

Your calculation utilizes the basis: cc-pVDZ
       H, B-Ne : Obtained from the ccRepo (grant-hill.group.shef.ac.uk/ccrepo) Feb. 2017
                 T. H. Dunning, Jr., J. Chem. Phys. 90, 1007 (1989)
            He : Obtained from the ccRepo (grant-hill.group.shef.ac.uk/ccrepo) Feb. 2017
                 D. E. Woon, T. H. Dunning, Jr., J. Chem. Phys. 100, 2975 (1994)
  Li-Be, Na-Mg : Obtained from the ccRepo (grant-hill.group.shef.ac.uk/ccrepo) Feb. 2017
                 B. P. Prascher, D. E. Woon, K. A. Peterson, T. H. Dunning, Jr., A. K. Wilson, Theor. Chem. Acc. 128, 69 (2011)
         Al-Ar : Obtained from the ccRepo (grant-hill.group.shef.ac.uk/ccrepo) Feb. 2017
                 D. E. Woon, T. H. Dunning, Jr., J. Chem. Phys. 98, 1358 (1993)
            Ca : Obtained from the Peterson Research Group Website (tyr0.chem.wsu.edu/~kipeters) Feb. 2017
                 J. Koput, K. A. Peterson, J. Phys. Chem. 106, 9595 (2002)
         Sc-Zn : Obtained from the ccRepo (grant-hill.group.shef.ac.uk/ccrepo) Feb. 2017
                 N. B. Balabanov, K. A. Peterson, J. Chem. Phys. 123, 064107 (2005)
                 N. B. Balabanov, K. A. Peterson, J. Chem. Phys. 125, 074110 (2006)
         Ga-Kr : Obtained from the ccRepo (grant-hill.group.shef.ac.uk/ccrepo) Feb. 2017
                 A. K. Wilson, D. E. Woon, K. A. Peterson, T. H. Dunning, Jr., J. Chem. Phys. 110, 7667 (1999)

----- AuxJ basis set information -----
Your calculation utilizes the auxiliary basis: def2/J
   F. Weigend, Phys. Chem. Chem. Phys. 8, 1057 (2006).

----- AuxC basis set information -----
The basis set includes element-specific modifications.

Your calculation utilizes the auxiliary basis: aug-cc-pVDZ/C
  H-He, B, Ne, Al-Ar, Ga-Ge, Se-Br : Obtained from the EMSL Basis Set Exchange (bse.pnl.gov) Feb. 2017
                                     F. Weigend, A. Kohn, C. Hattig, J. Chem. Phys. 116, 3175 (2002)
                            Be, Mg : Obtained from the TURBOMOLE 7.0 basis set library
                                     C. Haettig, Phys. Chem. Chem. Phys. 7, 59 (2005)
                               C-F : Obtained from the EMSL Basis Set Exchange (bse.pnl.gov) Feb. 2017
                                     C. Haettig, Phys. Chem. Chem. Phys. 7, 59 (2005)
                                     F. Weigend, A. Kohn, C. Hattig, J. Chem. Phys. 116, 3175 (2002)
                                As : Obtained from the EMSL Basis Set Exchange (bse.pnl.gov) Feb. 2017
                                     C. Haettig, G. Schmitz, J. Kossmann, Phys. Chem. Chem. Phys. 14, 6549 (2012)
                                Kr : Obtained from the TURBOMOLE 7.0 basis set library
                                     F. Weigend, A. Kohn, C. Hattig, J. Chem. Phys. 116, 3175 (2002)
                                     S function revised in Sep. 2009

Your calculation utilizes the auxiliary basis: cc-pVDZ/C
  H-He, B, Ne, Al-Ar, Ga-Br : Obtained from the EMSL Basis Set Exchange (bse.pnl.gov) Feb. 2017
                              F. Weigend, A. Kohn, C. Hattig, J. Chem. Phys. 116, 3175 (2002)
               Li-Be, Na-Mg : Obtained from the EMSL Basis Set Exchange (bse.pnl.gov) Feb. 2017
                              C. Haettig, Phys. Chem. Chem. Phys. 7, 59 (2005)
                        C-F : Obtained from the EMSL Basis Set Exchange (bse.pnl.gov) Feb. 2017
                              C. Haettig, Phys. Chem. Chem. Phys. 7, 59 (2005)
                              F. Weigend, A. Kohn, C. Hattig, J. Chem. Phys. 116, 3175 (2002)
                         Kr : Obtained from the TURBOMOLE 7.0 basis set library
                              F. Weigend, A. Kohn, C. Hattig, J. Chem. Phys. 116, 3175 (2002)
                              S function revised in Sep. 2009

================================================================================
                                        WARNINGS
                       Please study these warnings very carefully!
================================================================================

WARNING: Old DensityContainer found on disk!
         Will remove this file -
         If you want to keep old densities, please start your calculation with a different basename.


WARNING: No MP2 level density has been requested!
         To calculate MP2 level properties use
         %mp2 Density relaxed end
         or
         %mp2 Density unrelaxed end

WARNING: Post HF methods need fully converged wavefunctions
  ===> : Setting SCFConvForced true
         You can overwrite this default with %scf ConvForced false


================================================================================
                                       INPUT FILE
================================================================================
NAME = orca.inp
|  1> ! TightSCF RI-MP2 RIJCOSX SlowConv DIIS
|  2> %pal nprocs 8 end
|  3> %maxcore 25000
|  4> %method
|  5> Method hf
|  6> RI on
|  7> RunTyp Energy
|  8> NewNCore C 2 end
|  9> NewNCore Mg 10 end
| 10> NewNCore O 2 end
| 11> end
| 12> %basis
| 13> NewGTO C "aug-cc-pVDZ" end
| 14> NewGTO Mg "cc-pVDZ" end
| 15> NewGTO O "aug-cc-pVDZ" end
| 16> Aux "def2/J"
| 17> NewAuxCGTO C "aug-cc-pVDZ/C" end
| 18> NewAuxCGTO Mg "cc-pVDZ/C" end
| 19> NewAuxCGTO O "aug-cc-pVDZ/C" end
| 20> end
| 21> %scf
| 22> HFTyp rhf
| 23> SCFMode Direct
| 24> sthresh 1e-6
| 25> AutoTRAHIter 60
| 26> MaxIter 1000
| 27> end
| 28> %coords
| 29> CTyp xyz
| 30> Mult 1
| 31> Units angs
| 32> Charge 0
| 33> coords
| 34> C                       0.00000000000    0.00000000000    2.44102235837
| 35> O                       0.00000000000    0.00000000000    3.58784217303
| 36> Mg:                     0.00000000000    0.00000000000    0.00000000000
| 37> O:                     -2.12018425659    0.00000000000    0.00567209089
| 38> O:                      0.00000000000    2.12018425659    0.00567209089
| 39> O:                      2.12018425659    0.00000000000    0.00567209089
| 40> O:                      0.00000000000   -2.12018425659    0.00567209089
| 41> O:                      0.00000000000    0.00000000000   -2.14129966123
| 42> Mg:                    -2.11144262254    2.11144262254   -0.04367284424
| 43> Mg:                     2.11144262254    2.11144262254   -0.04367284424
| 44> Mg:                     2.11144262254   -2.11144262254   -0.04367284424
| 45> Mg:                    -2.11144262254   -2.11144262254   -0.04367284424
| 46> O:                     -2.11070451449    2.11070451449   -2.14923989662
| 47> O:                      2.11070451449    2.11070451449   -2.14923989662
| 48> O:                      2.11070451449   -2.11070451449   -2.14923989662
| 49> O:                     -2.11070451449   -2.11070451449   -2.14923989662
| 50> O:                     -4.22049352791    2.11209139723    0.00772802266
| 51> O:                     -2.11209139723    4.22049352791    0.00772802266
| 52> O:                      2.11209139723    4.22049352791    0.00772802266
| 53> O:                      4.22049352791    2.11209139723    0.00772802266
| 54> O:                      4.22049352791   -2.11209139723    0.00772802266
| 55> O:                      2.11209139723   -4.22049352791    0.00772802266
| 56> O:                     -2.11209139723   -4.22049352791    0.00772802266
| 57> O:                     -4.22049352791   -2.11209139723    0.00772802266
| 58> end
| 59> end
| 60>
| 61>
| 62>                          ****END OF INPUT****
================================================================================

                       ****************************
                       * Single Point Calculation *
                       ****************************

---------------------------------
CARTESIAN COORDINATES (ANGSTROEM)
---------------------------------
  C      0.000000    0.000000    2.441022
  O      0.000000    0.000000    3.587842
  Mg     0.000000    0.000000    0.000000
  O     -2.120184    0.000000    0.005672
  O      0.000000    2.120184    0.005672
  O      2.120184    0.000000    0.005672
  O      0.000000   -2.120184    0.005672
  O      0.000000    0.000000   -2.141300
  Mg    -2.111443    2.111443   -0.043673
  Mg     2.111443    2.111443   -0.043673
  Mg     2.111443   -2.111443   -0.043673
  Mg    -2.111443   -2.111443   -0.043673
  O     -2.110705    2.110705   -2.149240
  O      2.110705    2.110705   -2.149240
  O      2.110705   -2.110705   -2.149240
  O     -2.110705   -2.110705   -2.149240
  O     -4.220494    2.112091    0.007728
  O     -2.112091    4.220494    0.007728
  O      2.112091    4.220494    0.007728
  O      4.220494    2.112091    0.007728
  O      4.220494   -2.112091    0.007728
  O      2.112091   -4.220494    0.007728
  O     -2.112091   -4.220494    0.007728
  O     -4.220494   -2.112091    0.007728

----------------------------
CARTESIAN COORDINATES (A.U.)
----------------------------
  NO LB      ZA    FRAG     MASS         X           Y           Z
   0 C     6.0000    0    12.011    0.000000    0.000000    4.612864
   1 O     8.0000    0    15.999    0.000000    0.000000    6.780039
   2 Mg    0.0000    0     0.000    0.000000    0.000000    0.000000
   3 O     0.0000    0     0.000   -4.006568    0.000000    0.010719
   4 O     0.0000    0     0.000    0.000000    4.006568    0.010719
   5 O     0.0000    0     0.000    4.006568    0.000000    0.010719
   6 O     0.0000    0     0.000    0.000000   -4.006568    0.010719
   7 O     0.0000    0     0.000    0.000000    0.000000   -4.046470
   8 Mg    0.0000    0     0.000   -3.990048    3.990048   -0.082530
   9 Mg    0.0000    0     0.000    3.990048    3.990048   -0.082530
  10 Mg    0.0000    0     0.000    3.990048   -3.990048   -0.082530
  11 Mg    0.0000    0     0.000   -3.990048   -3.990048   -0.082530
  12 O     0.0000    0     0.000   -3.988653    3.988653   -4.061475
  13 O     0.0000    0     0.000    3.988653    3.988653   -4.061475
  14 O     0.0000    0     0.000    3.988653   -3.988653   -4.061475
  15 O     0.0000    0     0.000   -3.988653   -3.988653   -4.061475
  16 O     0.0000    0     0.000   -7.975577    3.991274    0.014604
  17 O     0.0000    0     0.000   -3.991274    7.975577    0.014604
  18 O     0.0000    0     0.000    3.991274    7.975577    0.014604
  19 O     0.0000    0     0.000    7.975577    3.991274    0.014604
  20 O     0.0000    0     0.000    7.975577   -3.991274    0.014604
  21 O     0.0000    0     0.000    3.991274   -7.975577    0.014604
  22 O     0.0000    0     0.000   -3.991274   -7.975577    0.014604
  23 O     0.0000    0     0.000   -7.975577   -3.991274    0.014604

--------------------------------
INTERNAL COORDINATES (ANGSTROEM)
--------------------------------
 C      0   0   0     0.000000000000     0.00000000     0.00000000
 O      1   0   0     1.146819814660     0.00000000     0.00000000
 Mg     1   2   0     2.441022358370   179.99999915     0.00000000
 O      3   1   2     2.120191843798    89.84671800     0.00000000
 O      3   1   2     2.120191843798    89.84671800     0.00000000
 O      3   1   2     2.120191843798    89.84671800     0.00000000
 O      3   1   2     2.120191843798    89.84671800     0.00000000
 O      3   1   2     2.141299661230   179.99999852     0.00000000
 Mg     4   3   1     2.112037236193    89.75927407    91.33813376
 Mg     5   3   1     2.112037236193    89.75927407    91.33813376
 Mg     6   3   1     2.112037236193    89.75927407    91.33813376
 Mg     4   3   1     2.112037236193    89.75927407   268.66186624
 O      9   4   3     2.105567311124    91.31875951    89.83212722
 O     10   5   3     2.105567311124    91.31875951    89.83212722
 O     11   6   3     2.105567311124    91.31875951    89.83212722
 O     12   4   3     2.105567311124    91.31875951   270.16787278
 O      9   4   3     2.109677271876    89.74792452   181.24291387
 O      9   4   3     2.109677271876   177.25328254   264.52840758
 O     10   5   3     2.109677271876    89.74792452   181.24291387
 O     10   5   3     2.109677271876   177.25328254   264.52840758
 O     11   6   3     2.109677271876    89.74792452   181.24291387
 O     11   6   3     2.109677271876   177.25328254   264.52840758
 O     12   4   3     2.109677271876   177.25328254    95.47159242
 O     12   4   3     2.109677271876    89.74792452   178.75708613

---------------------------
INTERNAL COORDINATES (A.U.)
---------------------------
 C      0   0   0     0.000000000000     0.00000000     0.00000000
 O      1   0   0     2.167175374662     0.00000000     0.00000000
 Mg     1   2   0     4.612863744098   179.99999915     0.00000000
 O      3   1   2     4.006581936152    89.84671800     0.00000000
 O      3   1   2     4.006581936152    89.84671800     0.00000000
 O      3   1   2     4.006581936152    89.84671800     0.00000000
 O      3   1   2     4.006581936152    89.84671800     0.00000000
 O      3   1   2     4.046469930383   179.99999852     0.00000000
 Mg     4   3   1     3.991171961049    89.75927407    91.33813376
 Mg     5   3   1     3.991171961049    89.75927407    91.33813376
 Mg     6   3   1     3.991171961049    89.75927407    91.33813376
 Mg     4   3   1     3.991171961049    89.75927407   268.66186624
 O      9   4   3     3.978945574562    91.31875951    89.83212722
 O     10   5   3     3.978945574562    91.31875951    89.83212722
 O     11   6   3     3.978945574562    91.31875951    89.83212722
 O     12   4   3     3.978945574562    91.31875951   270.16787278
 O      9   4   3     3.986712274803    89.74792452   181.24291387
 O      9   4   3     3.986712274803   177.25328254   264.52840758
 O     10   5   3     3.986712274803    89.74792452   181.24291387
 O     10   5   3     3.986712274803   177.25328254   264.52840758
 O     11   6   3     3.986712274803    89.74792452   181.24291387
 O     11   6   3     3.986712274803   177.25328254   264.52840758
 O     12   4   3     3.986712274803   177.25328254    95.47159242
 O     12   4   3     3.986712274803    89.74792452   178.75708613

---------------------
BASIS SET INFORMATION
---------------------
There are 3 groups of distinct atoms

 Group   1 Type C   : 18s5p2d contracted to 4s3p2d pattern {8811/311/11}
 Group   2 Type O   : 18s5p2d contracted to 4s3p2d pattern {8811/311/11}
 Group   3 Type Mg  : 34s15p1d contracted to 4s3p1d pattern {1111111/771/1}

Atom   0C    basis set group =>   1
Atom   1O    basis set group =>   2
Atom   2Mg   basis set group =>   3
Atom   3O    basis set group =>   2
Atom   4O    basis set group =>   2
Atom   5O    basis set group =>   2
Atom   6O    basis set group =>   2
Atom   7O    basis set group =>   2
Atom   8Mg   basis set group =>   3
Atom   9Mg   basis set group =>   3
Atom  10Mg   basis set group =>   3
Atom  11Mg   basis set group =>   3
Atom  12O    basis set group =>   2
Atom  13O    basis set group =>   2
Atom  14O    basis set group =>   2
Atom  15O    basis set group =>   2
Atom  16O    basis set group =>   2
Atom  17O    basis set group =>   2
Atom  18O    basis set group =>   2
Atom  19O    basis set group =>   2
Atom  20O    basis set group =>   2
Atom  21O    basis set group =>   2
Atom  22O    basis set group =>   2
Atom  23O    basis set group =>   2
---------------------------------
AUXILIARY/J BASIS SET INFORMATION
---------------------------------
There are 3 groups of distinct atoms

 Group   1 Type C   : 12s5p4d2f1g contracted to 6s4p3d1f1g pattern {711111/2111/211/2/1}
 Group   2 Type O   : 12s5p4d2f1g contracted to 6s4p3d1f1g pattern {711111/2111/211/2/1}
 Group   3 Type Mg  : 14s5p5d2f1g contracted to 8s4p4d1f1g pattern {71111111/2111/2111/2/1}

Atom   0C    basis set group =>   1
Atom   1O    basis set group =>   2
Atom   2Mg   basis set group =>   3
Atom   3O    basis set group =>   2
Atom   4O    basis set group =>   2
Atom   5O    basis set group =>   2
Atom   6O    basis set group =>   2
Atom   7O    basis set group =>   2
Atom   8Mg   basis set group =>   3
Atom   9Mg   basis set group =>   3
Atom  10Mg   basis set group =>   3
Atom  11Mg   basis set group =>   3
Atom  12O    basis set group =>   2
Atom  13O    basis set group =>   2
Atom  14O    basis set group =>   2
Atom  15O    basis set group =>   2
Atom  16O    basis set group =>   2
Atom  17O    basis set group =>   2
Atom  18O    basis set group =>   2
Atom  19O    basis set group =>   2
Atom  20O    basis set group =>   2
Atom  21O    basis set group =>   2
Atom  22O    basis set group =>   2
Atom  23O    basis set group =>   2
---------------------------------
AUXILIARY/C BASIS SET INFORMATION
---------------------------------
There are 3 groups of distinct atoms

 Group   1 Type C   : 8s6p5d3f contracted to 8s6p5d3f pattern {11111111/111111/11111/111}
 Group   2 Type O   : 8s6p5d3f contracted to 8s6p5d3f pattern {11111111/111111/11111/111}
 Group   3 Type Mg  : 9s7p5d3f contracted to 9s7p5d3f pattern {111111111/1111111/11111/111}

Atom   0C    basis set group =>   1
Atom   1O    basis set group =>   2
Atom   2Mg   basis set group =>   3
Atom   3O    basis set group =>   2
Atom   4O    basis set group =>   2
Atom   5O    basis set group =>   2
Atom   6O    basis set group =>   2
Atom   7O    basis set group =>   2
Atom   8Mg   basis set group =>   3
Atom   9Mg   basis set group =>   3
Atom  10Mg   basis set group =>   3
Atom  11Mg   basis set group =>   3
Atom  12O    basis set group =>   2
Atom  13O    basis set group =>   2
Atom  14O    basis set group =>   2
Atom  15O    basis set group =>   2
Atom  16O    basis set group =>   2
Atom  17O    basis set group =>   2
Atom  18O    basis set group =>   2
Atom  19O    basis set group =>   2
Atom  20O    basis set group =>   2
Atom  21O    basis set group =>   2
Atom  22O    basis set group =>   2
Atom  23O    basis set group =>   2

Checking for AutoStart:
The File: orca.gbw exists
Trying to determine its content:
     ... Fine, the file contains calculation information
     ... Fine, the calculation information was read
     ... Fine, the file contains a basis set
     ... Fine, the basis set was read
     ... Fine, the file contains a geometry
     ... Fine, the geometry was read
     ... Fine, the file contains a set of orbitals
     ... Fine, the orbitals can be read
     => possible old guess file was deleted
     => GBW file was renamed to GES file
     => GES file is set as startup file
     => Guess is set to MORead
     ... now leaving AutoStart



           ************************************************************
           *        Program running with 8 parallel MPI-processes     *
           *              working on a common directory               *
           ************************************************************
------------------------------------------------------------------------------
                             ORCA STARTUP CALCULATIONS
                           -- RI-GTO INTEGRALS CHOSEN --
------------------------------------------------------------------------------
------------------------------------------------------------------------------
                   ___
                  /   \      - P O W E R E D   B Y -
                 /     \
                 |  |  |   _    _      __       _____    __    __
                 |  |  |  | |  | |    /  \     |  _  \  |  |  /  |
                  \  \/   | |  | |   /    \    | | | |  |  | /  /
                 / \  \   | |__| |  /  /\  \   | |_| |  |  |/  /
                |  |  |   |  __  | /  /__\  \  |    /   |      \
                |  |  |   | |  | | |   __   |  |    \   |  |\   \
                \     /   | |  | | |  |  |  |  | |\  \  |  | \   \
                 \___/    |_|  |_| |__|  |__|  |_| \__\ |__|  \__/

                      - O R C A' S   B I G   F R I E N D -
                                      &
                       - I N T E G R A L  F E E D E R -

 v1 FN, 2020, v2 2021, v3 2022-2024
------------------------------------------------------------------------------


----------------------
SHARK INTEGRAL PACKAGE
----------------------

Number of atoms                             ...     24
Number of basis functions                   ...    756
Number of shells                            ...    390
Maximum angular momentum                    ...      2
Integral batch strategy                     ... SHARK/LIBINT Hybrid
RI-J (if used) integral strategy            ... SPLIT-RIJ (Revised 2003 algorithm where possible)
Printlevel                                  ...      1
Contraction scheme used                     ... PARTIAL GENERAL contraction
Prescreening option                         ... SCHWARTZ
   Thresh                                   ... 2.500e-11
   Tcut                                     ... 2.500e-12
   Tpresel                                  ... 2.500e-12
Coulomb Range Separation                    ... NOT USED
Exchange Range Separation                   ... NOT USED
Multipole approximations                    ... NOT USED
Finite Nucleus Model                        ... NOT USED
CABS basis                                  ... NOT available
Auxiliary Coulomb fitting basis             ... AVAILABLE
   # of basis functions in Aux-J            ...   1211
   # of shells in Aux-J                     ...    375
   Maximum angular momentum in Aux-J        ...      4
Auxiliary J/K fitting basis                 ... NOT available
Auxiliary Correlation fitting basis         ... AVAILABLE
   # of basis functions in Aux-C            ...   1748
   # of shells in Aux-C                     ...    538
   Maximum angular momentum in Aux-C        ...      3
Auxiliary 'external' fitting basis          ... NOT available

Checking pre-screening integrals            ... done (  0.0 sec) Dimension = 390
Save PGC pre-screening integrals            ... done (  0.0 sec) Dimension = 390
Calculate PGC overlap integrals             ... done (  0.0 sec) Dimension = 211
Calculating pre-screening integrals (ORCA)  ... done (  0.2 sec) Dimension = 211
Check shell pair data                       ... done (  0.0 sec)
Shell pair information
Shell pair cut-off parameter TPreSel        ...   2.5e-12
Total number of shell pairs                 ...     76245
Shell pairs after pre-screening             ...     37704
Total number of primitive shell pairs       ...     91863
Primitive shell pairs kept                  ...     42190
          la=0 lb=0:  10495 shell pairs
          la=1 lb=0:  14118 shell pairs
          la=1 lb=1:   3748 shell pairs
          la=2 lb=0:   5481 shell pairs
          la=2 lb=1:   3185 shell pairs
          la=2 lb=2:    677 shell pairs

Calculating one electron integrals          ... done (  0.0 sec)
Calculating RI/J V-Matrix + Cholesky decomp.... done (  0.1 sec)
Calculating RI/C V-Matrix + Cholesky decomp.... done (  0.2 sec)
Calculating Nuclear repulsion               ... done (  0.0 sec) ENN=     22.148645910806 Eh

Diagonalization of the overlap matrix:
Smallest eigenvalue                        ... 2.753e-05
Time for diagonalization                   ...    0.048 sec
Threshold for overlap eigenvalues          ... 1.000e-06
Number of eigenvalues below threshold      ... 0
Time for construction of square roots      ...    0.026 sec
Total time needed                          ...    0.077 sec

-------------------
DFT GRID GENERATION
-------------------

General Integration Accuracy     IntAcc      ... 4.388
Radial Grid Type                 RadialGrid  ... OptM3 with GC (2021)
Angular Grid (max. ang.)         AngularGrid ... 4 (Lebedev-302)
Angular grid pruning method      GridPruning ... 4 (adaptive)
Weight generation scheme         WeightScheme... mBecke (2022)
Basis function cutoff            BFCut       ... 1.0000e-11
Integration weight cutoff        WCut        ... 1.0000e-14
Partially contracted basis set               ... off
Rotationally invariant grid construction     ... off
Angular grids for H and He will be reduced by one unit
Diffuse basis detected: some atoms will have their outermost
                        angular grid increased by 1.

Total number of grid points                  ...   156677
Total number of batches                      ...     2460
Average number of points per batch           ...       63
Average number of grid points per atom       ...     6528

---------------------
SHARK GRID GENERATION
---------------------

General Integration Accuracy     IntAcc      ... 4.388
Radial Grid Type                 RadialGrid  ... OptM3 with GC (2021)
Angular Grid (max. ang.)         AngularGrid ... 4 (Lebedev-302)
Angular grid pruning method      GridPruning ... 4 (adaptive)
Weight generation scheme         WeightScheme... mBecke (2022)
Basis function cutoff            BFCut       ... 1.0000e-11
Integration weight cutoff        WCut        ... 1.0000e-14
Partially contracted basis set               ... off
Rotationally invariant grid construction     ... off
Angular grids for H and He will be reduced by one unit
Diffuse basis detected: some atoms will have their outermost
                        angular grid increased by 1.
Core-polarized basis detected: some atoms will have their core
                               angular grid increased.
Steep s-basis detected: some atoms will have their radial
                        grid points doubled.

Total number of grid points                  ...   337324
Total number of batches                      ...     5281
Average number of points per batch           ...       63
Average number of grid points per atom       ...    14055

--------------------
COSX GRID GENERATION
--------------------

GRIDX 1
-------
General Integration Accuracy     IntAcc      ... 3.816
Radial Grid Type                 RadialGrid  ... OptM3 with GC (2021)
Angular Grid (max. ang.)         AngularGrid ... 1 (Lebedev-50)
Angular grid pruning method      GridPruning ... 4 (adaptive)
Weight generation scheme         WeightScheme... mBecke (2022)
Basis function cutoff            BFCut       ... 1.0000e-11
Integration weight cutoff        WCut        ... 1.0000e-14
Partially contracted basis set               ... on
Rotationally invariant grid construction     ... off
Angular grids for H and He will be reduced by one unit
Diffuse basis detected: some atoms will have their outermost
                        angular grid increased by 1.

Total number of grid points                  ...    24490
Total number of batches                      ...      205
Average number of points per batch           ...      119
Average number of grid points per atom       ...     1020
UseSFitting                                  ... on

GRIDX 2
-------
General Integration Accuracy     IntAcc      ... 4.020
Radial Grid Type                 RadialGrid  ... OptM3 with GC (2021)
Angular Grid (max. ang.)         AngularGrid ... 2 (Lebedev-110)
Angular grid pruning method      GridPruning ... 4 (adaptive)
Weight generation scheme         WeightScheme... mBecke (2022)
Basis function cutoff            BFCut       ... 1.0000e-11
Integration weight cutoff        WCut        ... 1.0000e-14
Partially contracted basis set               ... on
Rotationally invariant grid construction     ... off
Angular grids for H and He will be reduced by one unit
Diffuse basis detected: some atoms will have their outermost
                        angular grid increased by 1.

Total number of grid points                  ...    50142
Total number of batches                      ...      404
Average number of points per batch           ...      124
Average number of grid points per atom       ...     2089
UseSFitting                                  ... on

GRIDX 3
-------
General Integration Accuracy     IntAcc      ... 4.338
Radial Grid Type                 RadialGrid  ... OptM3 with GC (2021)
Angular Grid (max. ang.)         AngularGrid ... 3 (Lebedev-194)
Angular grid pruning method      GridPruning ... 4 (adaptive)
Weight generation scheme         WeightScheme... mBecke (2022)
Basis function cutoff            BFCut       ... 1.0000e-11
Integration weight cutoff        WCut        ... 1.0000e-14
Partially contracted basis set               ... on
Rotationally invariant grid construction     ... off
Angular grids for H and He will be reduced by one unit
Diffuse basis detected: some atoms will have their outermost
                        angular grid increased by 1.

Total number of grid points                  ...   111309
Total number of batches                      ...      884
Average number of points per batch           ...      125
Average number of grid points per atom       ...     4638
UseSFitting                                  ... on
Initializing property integral containers    ... done (  0.0 sec)

SHARK setup successfully completed in   9.9 seconds

Maximum memory used throughout the entire STARTUP-calculation: 99.7 MB


           ************************************************************
           *        Program running with 8 parallel MPI-processes     *
           *              working on a common directory               *
           ************************************************************
-------------------------------------------------------------------------------
                                 ORCA GUESS
                   Start orbitals & Density for SCF / CASSCF
-------------------------------------------------------------------------------

------------
SCF SETTINGS
------------
Hamiltonian:
 Ab initio Hamiltonian  Method          .... Hartree-Fock(GTOs)
 RI-approximation to the Coulomb term is turned on
   Number of AuxJ basis functions       .... 1211
   RIJ-COSX (HFX calculated with COS-X)).... on


General Settings:
 Integral files         IntName         .... orca
 Hartree-Fock type      HFTyp           .... RHF
 Total Charge           Charge          ....    0
 Multiplicity           Mult            ....    1
 Number of Electrons    NEL             ....   14
 Basis Dimension        Dim             ....  527
 Nuclear Repulsion      ENuc            ....     22.1486459108 Eh

Convergence Acceleration:
 AO-DIIS                CNVDIIS         .... on
   Start iteration      DIISMaxIt       ....     0
   Startup error        DIISStart       ....  0.200000
   # of expansion vecs  DIISMaxEq       ....     5
   Bias factor          DIISBfac        ....   1.050
   Max. coefficient     DIISMaxC        ....  10.000
 MO-DIIS                CNVKDIIS        .... off
 Trust-Rad. Augm. Hess. CNVTRAH         .... auto
   Auto Start mean grad. ratio tolernc. ....  1.125000
   Auto Start start iteration           ....     1
   Auto Start num. interpolation iter.  ....    10
   Max. Number of Micro iterations      ....    24
   Max. Number of Macro iterations      .... Maxiter - #DIIS iter
   Number of Davidson start vectors     ....     2
   Converg. threshold    (grad. norm)   ....   1.000e-05
   Grad. Scal. Fac. for Micro threshold ....   0.100
   Minimum threshold for Micro iter.    ....   1.000e-02
   NR start threshold (gradient norm)   ....   1.000e-04
   Initial trust radius                 ....   0.400
   Minimum AH scaling param. (alpha)    ....   1.000
   Maximum AH scaling param. (alpha)    .... 1000.000
   Quad. conv. algorithm                .... NR
   White noise on init. David. guess    .... on
   Maximum white noise                  ....   0.010
   Pseudo random numbers                .... off
   Inactive MOs                         .... canonical
   Orbital update algorithm             .... Taylor
   Preconditioner                       .... Diag
   Full preconditioner red. dimension   ....   250
 SOSCF                  CNVSOSCF        .... on
   Start iteration      SOSCFMaxIt      ....   150
   Startup grad/error   SOSCFStart      ....  0.001000
   Hessian update       SOSCFHessUp     .... L-BFGS
 Level Shifting         CNVShift        .... on
   Level shift para.    LevelShift      ....    0.2500
   Turn off err/grad.   ShiftErr        ....    0.0000
 Zerner damping         CNVZerner       .... off
 Static damping         CNVDamp         .... on
   Fraction old density DampFac         ....    0.8500
   Max. Damping (<1)    DampMax         ....    0.9800
   Min. Damping (>=0)   DampMin         ....    0.0000
   Turn off err/grad.   DampErr         ....    0.0300

SCF Procedure:
 Maximum # iterations   MaxIter         ....  1000
 SCF integral mode      SCFMode         .... Direct
   Integral package                     .... SHARK and LIBINT hybrid scheme
 Reset frequency        DirectResetFreq ....    20
 Integral Threshold     Thresh          ....  2.500e-11 Eh
 Primitive CutOff       TCut            ....  2.500e-12 Eh

Convergence Tolerance:
 Convergence Check Mode ConvCheckMode   .... Total+1el-Energy
 Convergence forced     ConvForced      .... 1
 Energy Change          TolE            ....  1.000e-08 Eh
 1-El. energy change                    ....  1.000e-05 Eh
 Orbital Gradient       TolG            ....  1.000e-05
 Orbital Rotation angle TolX            ....  1.000e-05
 DIIS Error             TolErr          ....  5.000e-07

---------------------
INITIAL GUESS: MOREAD
---------------------
Guess MOs are being read from file: orca.ges
Input Geometry matches current geometry (good)
Atom 0: N(Shells)= 9 and 6 - projection required
Input basis set needs projection
NBasis(read)= 356
NBasis(calc)= 527
Basis set overlap was calculated
Using GuessMode=FMatrix for the initial guess
C*T matrix was formed
Effective Fockian was calculated
Effective Fockian was diagonalized
Initial density was built
                      ------------------
                      INITIAL GUESS DONE (   0.2 sec)
                      ------------------
             **** ENERGY FILE WAS UPDATED (orca.en.tmp) ****
Finished Guess after   1.1 sec
Maximum memory used throughout the entire GUESS-calculation: 55.8 MB


           ************************************************************
           *        Program running with 8 parallel MPI-processes     *
           *              working on a common directory               *
           ************************************************************

-------------------------------------------------------------------------------------------
                                      ORCA LEAN-SCF
                              memory conserving SCF solver
-------------------------------------------------------------------------------------------

----------------------------------------D-I-I-S--------------------------------------------
Iteration    Energy (Eh)           Delta-E    RMSDP     MaxDP     DIISErr   Damp  Time(sec)
-------------------------------------------------------------------------------------------
               ***  Starting incremental Fock matrix formation  ***
    1    -112.7443170459050492     0.00e+00  3.75e-04  3.93e-02  5.00e-02  0.850   6.2
    2    -112.7454625285975993    -1.15e-03  3.58e-04  3.81e-02  4.25e-02  0.850   3.0
                               ***Turning on AO-DIIS***
    3    -112.7464847490234803    -1.02e-03  3.27e-04  3.52e-02  3.61e-02  0.850   2.9
    4    -112.7473814701809971    -8.97e-04  2.86e-04  3.09e-02  3.07e-02  0.850   2.9
    5    -112.7481647512941123    -7.83e-04  2.46e-04  2.66e-02  2.61e-02  0.850   2.9
    6    -112.7488489509518530    -6.84e-04  1.40e-03  1.51e-01  2.22e-02  0.000   2.8
                              *** Initializing SOSCF ***
---------------------------------------S-O-S-C-F--------------------------------------
Iteration    Energy (Eh)           Delta-E    RMSDP     MaxDP     MaxGrad    Time(sec)
--------------------------------------------------------------------------------------
    7    -112.7531422939858174    -4.29e-03  1.58e-05  1.22e-03  8.30e-04     3.4
               *** Restarting incremental Fock matrix formation ***
    8    -112.7531233204317545     1.90e-05  3.82e-05  4.50e-03  1.07e-04     5.7
    9    -112.7531237733779932    -4.53e-07  8.18e-06  9.33e-04  3.69e-05     3.1
   10    -112.7531237784182423    -5.04e-09  1.05e-06  1.08e-04  9.34e-06     2.4
                 **** Energy Check signals convergence ****

               *****************************************************
               *                     SUCCESS                       *
               *           SCF CONVERGED AFTER  10 CYCLES          *
               *****************************************************

Recomputing exchange energy using gridx3       ... done (    9.962 sec)
Old exchange energy                            :    -13.295066034 Eh
New exchange energy                            :    -13.295094518 Eh
Exchange energy change after final integration :     -0.000028485 Eh
Total energy after final integration           :   -112.753152263 Eh
             **** ENERGY FILE WAS UPDATED (orca.en.tmp) ****

----------------
TOTAL SCF ENERGY
----------------

Total Energy       :       -112.75315226322175 Eh           -3068.16926 eV

Components:
Nuclear Repulsion  :         22.14864591080557 Eh             602.69530 eV
Electronic Energy  :       -134.90176968922381 Eh           -3670.86378 eV
One Electron Energy:       -197.39550226540348 Eh           -5371.40469 eV
Two Electron Energy:         62.49373257617967 Eh            1700.54092 eV

Virial components:
Potential Energy   :       -225.22106720409238 Eh           -6128.57681 eV
Kinetic Energy     :        112.46791494087063 Eh            3060.40755 eV
Virial Ratio       :          2.00253616618127

---------------
SCF CONVERGENCE
---------------

  Last Energy change         ...    5.0402e-09  Tolerance :   1.0000e-08
  Last MAX-Density change    ...    1.0813e-04  Tolerance :   1.0000e-07
  Last RMS-Density change    ...    1.0521e-06  Tolerance :   5.0000e-09
  Last DIIS Error            ...    8.3015e-04  Tolerance :   5.0000e-07
  Last Orbital Gradient      ...    9.3387e-06  Tolerance :   1.0000e-05
  Last Orbital Rotation      ...    1.1119e-05  Tolerance :   1.0000e-05


----------------
ORBITAL ENERGIES
----------------

  NO   OCC          E(Eh)            E(eV)
   0   2.0000     -20.679049      -562.7055
   1   2.0000     -11.381002      -309.6928
   2   2.0000      -1.516433       -41.2642
   3   2.0000      -0.806129       -21.9359
   4   2.0000      -0.632564       -17.2130
   5   2.0000      -0.632564       -17.2130
   6   2.0000      -0.556277       -15.1371
   7   0.0000       0.026042         0.7086
   8   0.0000       0.038490         1.0474
   9   0.0000       0.038490         1.0474
  10   0.0000       0.054623         1.4864
  11   0.0000       0.060783         1.6540
  12   0.0000       0.071067         1.9338
  13   0.0000       0.079082         2.1519
  14   0.0000       0.079082         2.1519
  15   0.0000       0.079520         2.1639
  16   0.0000       0.092110         2.5064
  17   0.0000       0.092110         2.5064
*Only the first 10 virtual orbitals were printed.

                    ********************************
                    * MULLIKEN POPULATION ANALYSIS *
                    ********************************

-----------------------
MULLIKEN ATOMIC CHARGES
-----------------------
   0 C :    0.350866
   1 O :   -0.414565
   2 Mg:    0.018722
   3 O :    0.013518
   4 O :    0.013525
   5 O :    0.013521
   6 O :    0.013503
   7 O :    0.000011
   8 Mg:   -0.002373
   9 Mg:   -0.002403
  10 Mg:   -0.002395
  11 Mg:   -0.002377
  12 O :   -0.000127
  13 O :   -0.000127
  14 O :   -0.000127
  15 O :   -0.000127
  16 O :    0.000119
  17 O :    0.000120
  18 O :    0.000119
  19 O :    0.000120
  20 O :    0.000119
  21 O :    0.000120
  22 O :    0.000120
  23 O :    0.000120
Sum of atomic charges:   -0.0000000

--------------------------------
MULLIKEN REDUCED ORBITAL CHARGES
--------------------------------
  0 C s       :     3.737042  s :     3.737042
      pz      :     1.010827  p :     1.858725
      px      :     0.423952
      py      :     0.423946
      dz2     :     0.009855  d :     0.053367
      dxz     :     0.021757
      dyz     :     0.021756
      dx2y2   :    -0.000000
      dxy     :    -0.000000

  1 O s       :     3.947712  s :     3.947712
      pz      :     1.344995  p :     4.414789
      px      :     1.534895
      py      :     1.534898
      dz2     :     0.014745  d :     0.052065
      dxz     :     0.018660
      dyz     :     0.018660
      dx2y2   :    -0.000000
      dxy     :     0.000000

  2 Mgs       :    -0.013226  s :    -0.013226
      pz      :    -0.061551  p :    -0.000772
      px      :     0.030385
      py      :     0.030394
      dz2     :    -0.003575  d :    -0.004724
      dxz     :    -0.000575
      dyz     :    -0.000575
      dx2y2   :    -0.000000
      dxy     :    -0.000000

  3 O s       :    -0.007538  s :    -0.007538
      pz      :    -0.001239  p :    -0.005870
      px      :    -0.003990
      py      :    -0.000642
      dz2     :    -0.000014  d :    -0.000110
      dxz     :    -0.000096
      dyz     :     0.000000
      dx2y2   :    -0.000002
      dxy     :     0.000001

  4 O s       :    -0.007543  s :    -0.007543
      pz      :    -0.001246  p :    -0.005871
      px      :    -0.000641
      py      :    -0.003984
      dz2     :    -0.000014  d :    -0.000111
      dxz     :     0.000000
      dyz     :    -0.000096
      dx2y2   :    -0.000002
      dxy     :     0.000001

  5 O s       :    -0.007536  s :    -0.007536
      pz      :    -0.001243  p :    -0.005875
      px      :    -0.003991
      py      :    -0.000641
      dz2     :    -0.000014  d :    -0.000111
      dxz     :    -0.000096
      dyz     :     0.000000
      dx2y2   :    -0.000002
      dxy     :     0.000001

  6 O s       :    -0.007528  s :    -0.007528
      pz      :    -0.001239  p :    -0.005865
      px      :    -0.000642
      py      :    -0.003984
      dz2     :    -0.000014  d :    -0.000111
      dxz     :     0.000000
      dyz     :    -0.000096
      dx2y2   :    -0.000002
      dxy     :     0.000001

  7 O s       :     0.000855  s :     0.000855
      pz      :    -0.000791  p :    -0.000852
      px      :    -0.000031
      py      :    -0.000031
      dz2     :    -0.000014  d :    -0.000014
      dxz     :    -0.000000
      dyz     :    -0.000000
      dx2y2   :     0.000000
      dxy     :     0.000000

  8 Mgs       :    -0.001432  s :    -0.001432
      pz      :     0.000841  p :     0.003766
      px      :     0.001458
      py      :     0.001466
      dz2     :    -0.000021  d :     0.000040
      dxz     :     0.000006
      dyz     :     0.000006
      dx2y2   :     0.000014
      dxy     :     0.000035

  9 Mgs       :    -0.001423  s :    -0.001423
      pz      :     0.000847  p :     0.003785
      px      :     0.001472
      py      :     0.001467
      dz2     :    -0.000021  d :     0.000040
      dxz     :     0.000006
      dyz     :     0.000006
      dx2y2   :     0.000014
      dxy     :     0.000035

 10 Mgs       :    -0.001424  s :    -0.001424
      pz      :     0.000848  p :     0.003779
      px      :     0.001465
      py      :     0.001466
      dz2     :    -0.000021  d :     0.000040
      dxz     :     0.000006
      dyz     :     0.000006
      dx2y2   :     0.000014
      dxy     :     0.000035

 11 Mgs       :    -0.001428  s :    -0.001428
      pz      :     0.000844  p :     0.003766
      px      :     0.001465
      py      :     0.001457
      dz2     :    -0.000021  d :     0.000040
      dxz     :     0.000006
      dyz     :     0.000006
      dx2y2   :     0.000014
      dxy     :     0.000035

 12 O s       :     0.000047  s :     0.000047
      pz      :     0.000037  p :     0.000081
      px      :     0.000022
      py      :     0.000022
      dz2     :    -0.000000  d :    -0.000000
      dxz     :     0.000000
      dyz     :     0.000000
      dx2y2   :    -0.000000
      dxy     :    -0.000000

 13 O s       :     0.000047  s :     0.000047
      pz      :     0.000037  p :     0.000080
      px      :     0.000022
      py      :     0.000022
      dz2     :    -0.000000  d :    -0.000000
      dxz     :     0.000000
      dyz     :     0.000000
      dx2y2   :    -0.000000
      dxy     :    -0.000000

 14 O s       :     0.000047  s :     0.000047
      pz      :     0.000037  p :     0.000080
      px      :     0.000022
      py      :     0.000022
      dz2     :    -0.000000  d :    -0.000000
      dxz     :     0.000000
      dyz     :     0.000000
      dx2y2   :    -0.000000
      dxy     :    -0.000000

 15 O s       :     0.000047  s :     0.000047
      pz      :     0.000037  p :     0.000080
      px      :     0.000022
      py      :     0.000022
      dz2     :    -0.000000  d :    -0.000000
      dxz     :     0.000000
      dyz     :     0.000000
      dx2y2   :    -0.000000
      dxy     :    -0.000000

 16 O s       :    -0.000015  s :    -0.000015
      pz      :     0.000017  p :    -0.000104
      px      :    -0.000064
      py      :    -0.000057
      dz2     :    -0.000000  d :    -0.000000
      dxz     :     0.000000
      dyz     :    -0.000000
      dx2y2   :    -0.000000
      dxy     :    -0.000000

 17 O s       :    -0.000015  s :    -0.000015
      pz      :     0.000017  p :    -0.000105
      px      :    -0.000057
      py      :    -0.000065
      dz2     :    -0.000000  d :    -0.000000
      dxz     :    -0.000000
      dyz     :     0.000000
      dx2y2   :    -0.000000
      dxy     :    -0.000000

 18 O s       :    -0.000015  s :    -0.000015
      pz      :     0.000017  p :    -0.000104
      px      :    -0.000057
      py      :    -0.000064
      dz2     :    -0.000000  d :    -0.000000
      dxz     :    -0.000000
      dyz     :     0.000000
      dx2y2   :    -0.000000
      dxy     :    -0.000000

 19 O s       :    -0.000015  s :    -0.000015
      pz      :     0.000017  p :    -0.000105
      px      :    -0.000065
      py      :    -0.000057
      dz2     :    -0.000000  d :    -0.000000
      dxz     :     0.000000
      dyz     :    -0.000000
      dx2y2   :    -0.000000
      dxy     :    -0.000000

 20 O s       :    -0.000015  s :    -0.000015
      pz      :     0.000017  p :    -0.000104
      px      :    -0.000064
      py      :    -0.000057
      dz2     :    -0.000000  d :    -0.000000
      dxz     :     0.000000
      dyz     :    -0.000000
      dx2y2   :    -0.000000
      dxy     :    -0.000000

 21 O s       :    -0.000015  s :    -0.000015
      pz      :     0.000017  p :    -0.000104
      px      :    -0.000057
      py      :    -0.000064
      dz2     :    -0.000000  d :    -0.000000
      dxz     :    -0.000000
      dyz     :     0.000000
      dx2y2   :    -0.000000
      dxy     :    -0.000000

 22 O s       :    -0.000015  s :    -0.000015
      pz      :     0.000017  p :    -0.000104
      px      :    -0.000057
      py      :    -0.000064
      dz2     :    -0.000000  d :    -0.000000
      dxz     :    -0.000000
      dyz     :     0.000000
      dx2y2   :    -0.000000
      dxy     :    -0.000000

 23 O s       :    -0.000015  s :    -0.000015
      pz      :     0.000017  p :    -0.000105
      px      :    -0.000065
      py      :    -0.000057
      dz2     :    -0.000000  d :    -0.000000
      dxz     :     0.000000
      dyz     :    -0.000000
      dx2y2   :    -0.000000
      dxy     :    -0.000000



                     *******************************
                     * LOEWDIN POPULATION ANALYSIS *
                     *******************************

----------------------
LOEWDIN ATOMIC CHARGES
----------------------
   0 C :    0.368715
   1 O :   -0.036336
   2 Mg:   -0.212983
   3 O :   -0.018512
   4 O :   -0.018512
   5 O :   -0.018512
   6 O :   -0.018512
   7 O :   -0.000785
   8 Mg:   -0.010941
   9 Mg:   -0.010941
  10 Mg:   -0.010941
  11 Mg:   -0.010941
  12 O :   -0.000088
  13 O :   -0.000088
  14 O :   -0.000088
  15 O :   -0.000088
  16 O :   -0.000056
  17 O :   -0.000056
  18 O :   -0.000056
  19 O :   -0.000056
  20 O :   -0.000056
  21 O :   -0.000056
  22 O :   -0.000056
  23 O :   -0.000056

-------------------------------
LOEWDIN REDUCED ORBITAL CHARGES
-------------------------------
  0 C s       :     3.129775  s :     3.129775
      pz      :     1.139226  p :     2.061488
      px      :     0.461131
      py      :     0.461131
      dz2     :     0.202611  d :     0.440022
      dxz     :     0.118705
      dyz     :     0.118705
      dx2y2   :     0.000000
      dxy     :     0.000000

  1 O s       :     3.485257  s :     3.485257
      pz      :     1.609881  p :     4.387418
      px      :     1.388769
      py      :     1.388768
      dz2     :     0.116561  d :     0.163661
      dxz     :     0.023550
      dyz     :     0.023550
      dx2y2   :     0.000000
      dxy     :     0.000000

  2 Mgs       :     0.031141  s :     0.031141
      pz      :     0.109031  p :     0.112796
      px      :     0.001883
      py      :     0.001883
      dz2     :     0.065402  d :     0.069046
      dxz     :     0.001822
      dyz     :     0.001822
      dx2y2   :     0.000000
      dxy     :     0.000000

  3 O s       :     0.001437  s :     0.001437
      pz      :     0.008070  p :     0.016899
      px      :     0.008730
      py      :     0.000100
      dz2     :     0.000028  d :     0.000176
      dxz     :     0.000092
      dyz     :     0.000000
      dx2y2   :     0.000055
      dxy     :     0.000000

  4 O s       :     0.001437  s :     0.001437
      pz      :     0.008069  p :     0.016899
      px      :     0.000100
      py      :     0.008730
      dz2     :     0.000028  d :     0.000176
      dxz     :     0.000000
      dyz     :     0.000092
      dx2y2   :     0.000055
      dxy     :     0.000000

  5 O s       :     0.001437  s :     0.001437
      pz      :     0.008070  p :     0.016899
      px      :     0.008729
      py      :     0.000100
      dz2     :     0.000028  d :     0.000176
      dxz     :     0.000092
      dyz     :     0.000000
      dx2y2   :     0.000055
      dxy     :     0.000000

  6 O s       :     0.001437  s :     0.001437
      pz      :     0.008070  p :     0.016899
      px      :     0.000100
      py      :     0.008730
      dz2     :     0.000028  d :     0.000176
      dxz     :     0.000000
      dyz     :     0.000092
      dx2y2   :     0.000055
      dxy     :     0.000000

  7 O s       :     0.000136  s :     0.000136
      pz      :     0.000505  p :     0.000512
      px      :     0.000003
      py      :     0.000003
      dz2     :     0.000126  d :     0.000137
      dxz     :     0.000006
      dyz     :     0.000006
      dx2y2   :     0.000000
      dxy     :     0.000000

  8 Mgs       :     0.001540  s :     0.001540
      pz      :     0.002370  p :     0.009317
      px      :     0.003474
      py      :     0.003474
      dz2     :     0.000013  d :     0.000083
      dxz     :     0.000013
      dyz     :     0.000013
      dx2y2   :     0.000001
      dxy     :     0.000043

  9 Mgs       :     0.001540  s :     0.001540
      pz      :     0.002370  p :     0.009318
      px      :     0.003474
      py      :     0.003474
      dz2     :     0.000013  d :     0.000083
      dxz     :     0.000013
      dyz     :     0.000013
      dx2y2   :     0.000001
      dxy     :     0.000043

 10 Mgs       :     0.001540  s :     0.001540
      pz      :     0.002370  p :     0.009318
      px      :     0.003474
      py      :     0.003474
      dz2     :     0.000013  d :     0.000083
      dxz     :     0.000013
      dyz     :     0.000013
      dx2y2   :     0.000001
      dxy     :     0.000043

 11 Mgs       :     0.001540  s :     0.001540
      pz      :     0.002370  p :     0.009317
      px      :     0.003474
      py      :     0.003473
      dz2     :     0.000013  d :     0.000083
      dxz     :     0.000013
      dyz     :     0.000013
      dx2y2   :     0.000001
      dxy     :     0.000043

 12 O s       :     0.000069  s :     0.000069
      pz      :     0.000003  p :     0.000012
      px      :     0.000004
      py      :     0.000004
      dz2     :     0.000003  d :     0.000008
      dxz     :     0.000001
      dyz     :     0.000001
      dx2y2   :     0.000000
      dxy     :     0.000001

 13 O s       :     0.000069  s :     0.000069
      pz      :     0.000003  p :     0.000012
      px      :     0.000004
      py      :     0.000004
      dz2     :     0.000003  d :     0.000008
      dxz     :     0.000001
      dyz     :     0.000001
      dx2y2   :     0.000000
      dxy     :     0.000001

 14 O s       :     0.000069  s :     0.000069
      pz      :     0.000003  p :     0.000012
      px      :     0.000004
      py      :     0.000004
      dz2     :     0.000003  d :     0.000008
      dxz     :     0.000001
      dyz     :     0.000001
      dx2y2   :     0.000000
      dxy     :     0.000001

 15 O s       :     0.000069  s :     0.000069
      pz      :     0.000003  p :     0.000012
      px      :     0.000004
      py      :     0.000004
      dz2     :     0.000003  d :     0.000008
      dxz     :     0.000001
      dyz     :     0.000001
      dx2y2   :     0.000000
      dxy     :     0.000001

 16 O s       :     0.000019  s :     0.000019
      pz      :     0.000025  p :     0.000030
      px      :     0.000003
      py      :     0.000002
      dz2     :     0.000000  d :     0.000007
      dxz     :     0.000002
      dyz     :     0.000001
      dx2y2   :     0.000004
      dxy     :     0.000000

 17 O s       :     0.000019  s :     0.000019
      pz      :     0.000025  p :     0.000030
      px      :     0.000002
      py      :     0.000003
      dz2     :     0.000000  d :     0.000007
      dxz     :     0.000001
      dyz     :     0.000002
      dx2y2   :     0.000004
      dxy     :     0.000000

 18 O s       :     0.000019  s :     0.000019
      pz      :     0.000025  p :     0.000030
      px      :     0.000002
      py      :     0.000003
      dz2     :     0.000000  d :     0.000007
      dxz     :     0.000001
      dyz     :     0.000002
      dx2y2   :     0.000004
      dxy     :     0.000000

 19 O s       :     0.000019  s :     0.000019
      pz      :     0.000025  p :     0.000030
      px      :     0.000003
      py      :     0.000002
      dz2     :     0.000000  d :     0.000007
      dxz     :     0.000002
      dyz     :     0.000001
      dx2y2   :     0.000004
      dxy     :     0.000000

 20 O s       :     0.000019  s :     0.000019
      pz      :     0.000025  p :     0.000030
      px      :     0.000003
      py      :     0.000002
      dz2     :     0.000000  d :     0.000007
      dxz     :     0.000002
      dyz     :     0.000001
      dx2y2   :     0.000004
      dxy     :     0.000000

 21 O s       :     0.000019  s :     0.000019
      pz      :     0.000025  p :     0.000030
      px      :     0.000002
      py      :     0.000003
      dz2     :     0.000000  d :     0.000007
      dxz     :     0.000001
      dyz     :     0.000002
      dx2y2   :     0.000004
      dxy     :     0.000000

 22 O s       :     0.000019  s :     0.000019
      pz      :     0.000025  p :     0.000030
      px      :     0.000002
      py      :     0.000003
      dz2     :     0.000000  d :     0.000007
      dxz     :     0.000001
      dyz     :     0.000002
      dx2y2   :     0.000004
      dxy     :     0.000000

 23 O s       :     0.000019  s :     0.000019
      pz      :     0.000025  p :     0.000030
      px      :     0.000003
      py      :     0.000002
      dz2     :     0.000000  d :     0.000007
      dxz     :     0.000002
      dyz     :     0.000001
      dx2y2   :     0.000004
      dxy     :     0.000000



                      *****************************
                      * MAYER POPULATION ANALYSIS *
                      *****************************

  NA   - Mulliken gross atomic population
  ZA   - Total nuclear charge
  QA   - Mulliken gross atomic charge
  VA   - Mayer's total valence
  BVA  - Mayer's bonded valence
  FA   - Mayer's free valence

  ATOM       NA         ZA         QA         VA         BVA        FA
  0 C      5.6491     6.0000     0.3509     2.2834     2.2834    -0.0000
  1 O      8.4146     8.0000    -0.4146     2.2648     2.2648    -0.0000
  2 Mg    -0.0187     0.0000     0.0187    -0.0389    -0.0389    -0.0000
  3 O     -0.0135     0.0000     0.0135    -0.0272    -0.0272     0.0000
  4 O     -0.0135     0.0000     0.0135    -0.0272    -0.0272     0.0000
  5 O     -0.0135     0.0000     0.0135    -0.0272    -0.0272     0.0000
  6 O     -0.0135     0.0000     0.0135    -0.0272    -0.0272     0.0000
  7 O     -0.0000     0.0000     0.0000    -0.0000    -0.0000    -0.0000
  8 Mg     0.0024     0.0000    -0.0024     0.0047     0.0047     0.0000
  9 Mg     0.0024     0.0000    -0.0024     0.0048     0.0048     0.0000
 10 Mg     0.0024     0.0000    -0.0024     0.0048     0.0048     0.0000
 11 Mg     0.0024     0.0000    -0.0024     0.0047     0.0047     0.0000
 12 O      0.0001     0.0000    -0.0001     0.0003     0.0003    -0.0000
 13 O      0.0001     0.0000    -0.0001     0.0003     0.0003    -0.0000
 14 O      0.0001     0.0000    -0.0001     0.0003     0.0003    -0.0000
 15 O      0.0001     0.0000    -0.0001     0.0003     0.0003    -0.0000
 16 O     -0.0001     0.0000     0.0001    -0.0002    -0.0002    -0.0000
 17 O     -0.0001     0.0000     0.0001    -0.0002    -0.0002     0.0000
 18 O     -0.0001     0.0000     0.0001    -0.0002    -0.0002     0.0000
 19 O     -0.0001     0.0000     0.0001    -0.0002    -0.0002    -0.0000
 20 O     -0.0001     0.0000     0.0001    -0.0002    -0.0002     0.0000
 21 O     -0.0001     0.0000     0.0001    -0.0002    -0.0002     0.0000
 22 O     -0.0001     0.0000     0.0001    -0.0002    -0.0002     0.0000
 23 O     -0.0001     0.0000     0.0001    -0.0002    -0.0002     0.0000

  Mayer bond orders larger than 0.100000
B(  0-C ,  1-O ) :   2.3373

-------
TIMINGS
-------

Total SCF time: 0 days 0 hours 0 min 46 sec

Total time                  ....      46.618 sec
Sum of individual times     ....      46.555 sec  ( 99.9%)

SCF preparation             ....       1.025 sec  (  2.2%)
Fock matrix formation       ....      43.488 sec  ( 93.3%)
  Startup                   ....       0.035 sec  (  0.1% of F)
  Split-RI-J                ....       5.304 sec  ( 12.2% of F)
  Chain of spheres X        ....      37.974 sec  ( 87.3% of F)
Diagonalization             ....       0.000 sec  (  0.0%)
Density matrix formation    ....       0.158 sec  (  0.3%)
Total Energy calculation    ....       0.066 sec  (  0.1%)
Population analysis         ....       0.085 sec  (  0.2%)
Orbital Transformation      ....       0.244 sec  (  0.5%)
Orbital Orthonormalization  ....       0.000 sec  (  0.0%)
DIIS solution               ....       1.151 sec  (  2.5%)
SOSCF solution              ....       0.334 sec  (  0.7%)
Finished LeanSCF after  46.7 sec

Maximum memory used throughout the entire LEANSCF-calculation: 101.9 MB


           ************************************************************
           *        Program running with 8 parallel MPI-processes     *
           *              working on a common directory               *
           ************************************************************

------------------------------------------------------------------------------
                                ORCA  MP2
------------------------------------------------------------------------------

NOTE: Switching SHARK to Segmented Contraction for MP2
      If that is not desired please turn off the PGCFlag in the input (%shark PGCFlag 0 end)
      Number of basis functions in BAS before restore: 756
      Number of basis functions in BAS after restore : 527
Freezing NCore=4 chemical core electrons

-------------
RI-MP2 ENERGY
-------------
Dimension of the orbital basis            ...  527
Dimension of the AuxC basis               ... 1748
Memory devoted to MP2                     ... 25000 MB
Data format for matrix containers         ... DOUBLE
Compression type for matrix containers    ... UNCOMPRESSED

-----------------------
SHARK RI TRANSFORMATION
-----------------------

Number of basis functions                ...    527
Number of aux functions                  ...   1748
Number of operators                      ...      1
Generation of IJK                        ... NO
Generation of IAK                        ... YES
Generation of ABK                        ... NO
Orbital Range Operator  0:    2-   6 to    7- 526

Aux basis identifier                     ...   AUXC
Contraction scheme used                  ... SEGMENTED
Do orthogonalization                     ... YES
All operator combinations                ... NO
Transpose (ia|K)                         ... NO
Integral generator used                  ... LIBINT
Starting integral generation + trafo...
Half trafo (segmented) done. Total time =  1.9 sec. integrals=  1.4 sec trafo=  0.4 sec
Integral generation and half transformation done (  1.9 sec)

Reading or making V^(-1/2)          ... done (  0.1 sec)
Sorting IAK integrals               ... done (  0.2 sec)

SHARK RI integral transformation done. Total time =  2.3 sec.

Opening buffers                              ... done

Starting loop over batches of integrals:

Operator 0  - window                       ... (  2-  6)x(  7-526)
Operator 0  - Memory available             ... 25000 MB
Operator 0  - Memory needed per MO         ...   6.9 MB
Operator 0  - Number of orbitals per batch ... 1
Operator 0  - Number of batches            ... 1

OPERATOR  0   PASS   0:  MOs     2 ...    2 +    3 ...    3 +    4 ...    4 +    5 ...    5
                            +    6 ...    6
  Reading integrals       ... ok
Time spent in pair loops =     0.213 sec
Deleting buffers (Ka|jb) ...done

-----------------------------------------------
 RI-MP2 CORRELATION ENERGY:     -0.303971586 Eh
-----------------------------------------------


-------
TIMINGS
-------

Total time                :    3.316 sec
Integral trafo            :    2.346 sec ( 70.7%)
I/O of integrals          :    0.004 sec (  0.1%)
K(i,j) operators          :    0.028 sec (  0.8%)
T(i,j) pair energies      :    0.003 sec (  0.1%)
V**(-1/2)                 :    0.757 sec ( 22.8%)


---------------------------------------
MP2 TOTAL ENERGY:     -113.057123850 Eh
---------------------------------------

Maximum memory used throughout the entire MP2-calculation: 70.1 MB

-------------------------   --------------------
FINAL SINGLE POINT ENERGY      -113.057123849535
-------------------------   --------------------



           ************************************************************
           *        Program running with 8 parallel MPI-processes     *
           *              working on a common directory               *
           ************************************************************

------------------------------------------------------------------------------
                              ORCA PROPERTY CALCULATIONS
------------------------------------------------------------------------------

GBWName                                 ... orca.gbw
Number of atoms                         ...     24
Number of basis functions               ...    756
Max core memory                         ...  25000 MB

Electric properties:
Dipole moment                           ... YES
Quadrupole moment                       ...  NO
Static polarizability (Dipole/Dipole)   ...  NO
Static polarizability (Dipole/Quad.)    ...  NO
Static polarizability (Quad./Quad.)     ...  NO
Static polarizability (Velocity)        ...  NO

Atomic electric properties:
Dipole moment                           ...  NO
Quadrupole moment                       ...  NO
Static polarizability                   ...  NO

Choice of electric origin               ... Center of mass
Position of electric origin             ...     0.000000     0.000000     5.850730

General magnetic properties:
Magnetizability                         ...  NO

EPR properties:
g-Tensor (aka g-matrix)                 ...  NO
Zero-Field splitting spin-orbit         ...  NO
Zero-field splitting spin-spin          ...  NO
Hyperfine couplings                     ...  NO (   0 nuclei)
Quadrupole couplings                    ...  NO (   0 nuclei)
Contact density                         ...  NO (   0 nuclei)

NMR properties:
Chemical shifts                         ...  NO (   0 nuclei)
Spin-rotation constants                 ...  NO (   0 nuclei)
Spin-spin couplings                     ...  NO (   0 nuclei,    0 pairs)

Choice of magnetic origin               ... GIAO
Position of magnetic origin             ...     0.000000     0.000000     0.000000

Properties with geometric perturbations:
SCF Hessian                             ...  NO
IR spectrum                             ...  NO
VCD spectrum                            ...  NO
X-ray spectroscopy properties:
SCF XES/XAS/RIXS spectra                ...  NO


-------------
DIPOLE MOMENT
-------------

Method             : SCF
Type of density    : Electron Density
Multiplicity       :   1
Irrep              :   0
Energy             :  -112.7531522632217502 Eh
Relativity type    :
Basis              : AO
                                X                 Y                 Z
Electronic contribution:      0.000000016      -0.000000097      -0.146545658
Nuclear contribution   :      0.000000000       0.000000000       0.007272920
                        -----------------------------------------
Total Dipole Moment    :      0.000000016      -0.000000097      -0.139272739
                        -----------------------------------------
Magnitude (a.u.)       :      0.139272739
Magnitude (Debye)      :      0.354003168



--------------------
Rotational spectrum
--------------------

Rotational constants in cm-1:             0.000000             1.868304             1.868304
Rotational constants in MHz :             0.000000         56010.355777         56010.355777

Dipole components along the rotational axes:
x,y,z [a.u.] :    -0.139273    -0.000000     0.000000
x,y,z [Debye]:    -0.354003    -0.000000     0.000000



Dipole moment calculation done in   0.0 sec

Maximum memory used throughout the entire PROP-calculation: 48.2 MB

--------------------------------
SUGGESTED CITATIONS FOR THIS RUN
--------------------------------

Below you find a list of papers that are relevant to this ORCA run
We neither can nor want to force you to cite these papers, but we appreciate if you do
You receive ORCA, which is the product of decades of hard work by many enthusiastic individuals, for free
The only thing we kindly ask in return is that you cite our papers,
We deeply appreciate it, if you show your appreciation for ORCA by not just citing the generic ORCA reference.

Please note that relegating all ORCA citations to the supporting information does *not* help us.
SI sections are not indexed - citations you put there will not count into any citation statistics
But we need these citations in order to attract the funding resources that allow us to do what we are doing

Therefore, if you are a happy ORCA user, please consider citing a few of the papers listed below in the main body of your paper

In addition to the list printed below, the program has created the file orca.bibtex that contains the list in bibtex format
You can import this file easily into all common literature databanks and citation aid programs


List of essential papers. We consider these as the minimum necessary citations

  1. Neese,F.
     Software update: the ORCA program system, version 5.0
     WIRES Comput. Molec. Sci., 2022 12(1)e1606
     doi.org/10.1002/wcms.1606

List of papers to cite with high priority. The work reported in these papers was absolutely
necessary for this run to complete.
Our perspective: the developers of density functionals and basis sets usually get cited in chemistry papers
Good! But without the algorithms to do something with them, the functionals or basis sets would not do anything.
Hence, in our opinion, the algorithm design and method developments papers are equally worthy of getting cited

  1. Neese,F.
     An improvement of the resolution of the identity approximation for the formation of the Coulomb matrix
     J. Comp. Chem., 2003 24(14)1740-1747
     doi.org/10.1002/jcc.10318
  2. Neese,F.; Wennmohs,F.; Hansen,A.; Becker,U.
     Efficient, approximate and parallel Hartree-Fock and hybrid DFT calculations. A 'chain-of-spheres' algorithm for the Hartree-Fock exchange
     Chem. Phys., 2009 356(1-3)98-109
     doi.org/10.1016/j.chemphys.2008.10.036
  3. Kossmann,S.; Neese,F.
     Efficient Structure Optimization with Second-Order Many-Body Perturbation Theory: The RIJCOSX-MP2 Method
     J. Theo. Comp. Chem., 2010 6 2325-2338
     doi.org/10.1021/ct100199k
  4. Helmich-Paris,B.; de Souza,B.; Neese,F.; Izsák,R.
     An improved chain of spheres for exchange algorithm
     J. Chem. Phys., 2021 155 104109
     doi.org/doi: 10.1063/5.0058766.
  5. Neese,F.
     The SHARK Integral Generation and Digestion System
     J. Comp. Chem., 2022  1-16
     doi.org/10.1002/jcc.26942

List of suggested additional citations. These are papers that are important in the 'surrounding' of
of this run, or papers that preceded the highly important papers. If you like your results we are grateful for a citation.

  1. Izsak,R.; Neese,F.
     An overlap fitted chain of spheres exchange method
     J. Chem. Phys., 2011 135 144105
     doi.org/10.1063/1.3646921
  2. Izsak,R.; Hansen,A.; Neese,F.
     The resolution of identity and chain of spheres approximations for the LPNO-CCSD singles Fock term
     Molec. Phys., 2012 110 2413-2417
     doi.org/10.1080/00268976.2012.687466
  3. Neese,F.
     The ORCA program system
     WIRES Comput. Molec. Sci., 2012 2(1)73-78
     doi.org/10.1002/wcms.81
  4. Izsak,R.; Neese,F.; Klopper,W.
     Robust fitting techniques in the chain of spheres approximation to the Fock exchange: The role of the complementary space
     J. Chem. Phys., 2013 139
     doi.org/10.1063/1.4819264
  5. Neese,F.
     Software update: the ORCA program system, version 4.0
     WIRES Comput. Molec. Sci., 2018 8(1)1-6
     doi.org/10.1002/wcms.1327
  6. Neese,F.; Wennmohs,F.; Becker,U.; Riplinger,C.
     The ORCA quantum chemistry program package
     J. Chem. Phys., 2020 152 Art. No. L224108
     doi.org/10.1063/5.0004608

List of optional additional citations

  1. Neese,F.
     Approximate second-order SCF convergence for spin unrestricted wavefunctions
     Chem. Phys. Lett., 2000 325(1-3)93-98
     doi.org/10.1016/s0009-2614(00)00662-x

Timings for individual modules:

Sum of individual times          ...       67.439 sec (=   1.124 min)
Startup calculation              ...       11.165 sec (=   0.186 min)  16.6 %
SCF iterations                   ...       49.133 sec (=   0.819 min)  72.9 %
Property calculations            ...        1.626 sec (=   0.027 min)   2.4 %
MP2 module                       ...        5.516 sec (=   0.092 min)   8.2 %
                             ****ORCA TERMINATED NORMALLY****
TOTAL RUN TIME: 0 days 0 hours 1 minutes 9 seconds 296 msec
