
                                 *****************
                                 * O   R   C   A *
                                 *****************

                                            #,                                       
                                            ###                                      
                                            ####                                     
                                            #####                                    
                                            ######                                   
                                           ########,                                 
                                     ,,################,,,,,                         
                               ,,#################################,,                 
                          ,,##########################################,,             
                       ,#########################################, ''#####,          
                    ,#############################################,,   '####,        
                  ,##################################################,,,,####,       
                ,###########''''           ''''###############################       
              ,#####''   ,,,,##########,,,,          '''####'''          '####       
            ,##' ,,,,###########################,,,                        '##       
           ' ,,###''''                  '''############,,,                           
         ,,##''                                '''############,,,,        ,,,,,,###''
      ,#''                                            '''#######################'''  
     '                                                          ''''####''''         
             ,#######,   #######,   ,#######,      ##                                
            ,#'     '#,  ##    ##  ,#'     '#,    #''#        ,####,   ,####,        
            ##       ##  ##   ,#'  ##            #'  '#       #'       #'  '#        
            ##       ##  #######   ##           ,######,      #####,   #    #        
            '#,     ,#'  ##    ##  '#,     ,#' ,#      #,     #,   #   #,  ,#        
             '#######'   ##     ##  '#######'  #'      '#     '####' # '####'        



                #########################################################
                #                        -***-                          #
                #          Department of theory and spectroscopy        #
                #                                                       #
                #                      Frank Neese                      #
                #                                                       #
                #     Directorship, Architecture, Infrastructure        #
                #                    SHARK, DRIVERS                     #
                #        Core code/Algorithms in most modules           #
                #                                                       #
                #        Max Planck Institute fuer Kohlenforschung      #
                #                Kaiser Wilhelm Platz 1                 #
                #                 D-45470 Muelheim/Ruhr                 #
                #                      Germany                          #
                #                                                       #
                #                  All rights reserved                  #
                #                        -***-                          #
                #########################################################


                         Program Version 6.0.0  -   RELEASE  -


 With contributions from (in alphabetic order):
   Daniel Aravena         : Magnetic Suceptibility
   Michael Atanasov       : Ab Initio Ligand Field Theory (pilot matlab implementation)
   Alexander A. Auer      : GIAO ZORA, VPT2 properties, NMR spectrum
   Ute Becker             : All parallelization in ORCA, NUMFREQ, NUMCALC
   Giovanni Bistoni       : ED, misc. LED, open-shell LED, HFLD
   Martin Brehm           : Molecular dynamics
   Dmytro Bykov           : pre 5.0 version of the SCF Hessian
   Marcos Casanova-Páez   : Triplet and SCS-CIS(D). UHF-(DLPNO)-IP/EA/STEOM-CCSD. UHF-CVS-IP/STEOM-CCSD
   Vijay G. Chilkuri      : MRCI spin determinant printing, contributions to CSF-ICE
   Pauline Colinet        : FMM embedding
   Dipayan Datta          : RHF DLPNO-CCSD density
   Achintya Kumar Dutta   : EOM-CC, STEOM-CC
   Nicolas Foglia         : Exact transition moments, OPA infrastructure, MCD improvements
   Dmitry Ganyushin       : Spin-Orbit,Spin-Spin,Magnetic field MRCI
   Miquel Garcia          : C-PCM and meta-GGA Hessian, CCSD/C-PCM, Gaussian charge scheme
   Tiago L. C. Gouveia    : GS-ROHF, GS-ROCIS
   Yang Guo               : DLPNO-NEVPT2, F12-NEVPT2, CIM, IAO-localization
   Andreas Hansen         : Spin unrestricted coupled pair/coupled cluster methods
   Ingolf Harden          : AUTO-CI MPn and infrastructure 
   Benjamin Helmich-Paris : MC-RPA, TRAH-(SCF,CASSCF), AVAS, COSX integrals, SCF dyn. polar.
   Lee Huntington         : MR-EOM, pCC
   Robert Izsak           : Overlap fitted RIJCOSX, COSX-SCS-MP3, EOM
   Riya Kayal             : Wick's Theorem for AUTO-CI, AUTO-CI UHF-CCSDT
   Emily Kempfer          : AUTO-CI, RHF CISDT and CCSDT
   Christian Kollmar      : KDIIS, OOCD, Brueckner-CCSD(T), CCSD density, CASPT2, CASPT2-K, improved NEVPT2
   Axel Koslowski         : Symmetry handling
   Simone Kossmann        : Meta GGA functionals, TD-DFT gradient, OOMP2, (MP2 Hessian; deprecated post 5.0)
   Lucas Lang             : DCDCAS
   Marvin Lechner         : AUTO-CI (C++ implementation), FIC-MRCC
   Spencer Leger          : CASSCF response
   Dagmar Lenk            : GEPOL surface, SMD, ORCA-2-JSON
   Dimitrios Liakos       : Extrapolation schemes; Compound Job, initial MDCI parallelization
   Dimitrios Manganas     : Further ROCIS development; embedding schemes. LFT, Crystal Embedding
   Dimitrios Pantazis     : SARC Basis sets
   Anastasios Papadopoulos: AUTO-CI, single reference methods and gradients
   Taras Petrenko         : pre 6.0 DFT Hessian and TD-DFT gradient, (ASA, deprecated), ECA, 1-Electron XAS/XES, NRVS
   Peter Pinski           : DLPNO-MP2, DLPNO-MP2 Gradient
   Christoph Reimann      : Effective Core Potentials
   Marius Retegan         : Local ZFS, SOC
   Christoph Riplinger    : Optimizer, TS searches, QM/MM, DLPNO-CCSD(T), (RO)-DLPNO pert. Triples
   Michael Roemelt        : Original ROCIS implementation
   Masaaki Saitow         : Open-shell DLPNO-CCSD energy and density
   Barbara Sandhoefer     : DKH picture change effects
   Kantharuban Sivalingam : CASSCF convergence/infrastructure, NEVPT2 and variants, FIC-MRCI
   Bernardo de Souza      : ESD, SOC TD-DFT
   Georgi Stoychev        : AutoAux, RI-MP2 NMR, DLPNO-MP2 response, X2C
   Van Anh Tran           : RI-MP2 g-tensors
   Willem Van den Heuvel  : Paramagnetic NMR
   Zikuan Wang            : NOTCH, Electric field optimization 
   Frank Wennmohs         : Technical directorship and infrastructure
   Hang Xu                : AUTO-CI-Response properties 


 We gratefully acknowledge several colleagues who have allowed us to
 interface, adapt or use parts of their codes:
   Stefan Grimme, W. Hujo, H. Kruse, P. Pracht,  : VdW corrections, initial TS optimization,
                  C. Bannwarth, S. Ehlert,         DFT functionals, gCP, sTDA/sTD-DF
                  L. Wittmann, M. Mueller
   Ed Valeev, F. Pavosevic, A. Kumar             : LibInt (2-el integral package), F12 methods
   Garnet Chan, S. Sharma, J. Yang, R. Olivares  : DMRG
   Ulf Ekstrom                                   : XCFun DFT Library
   Mihaly Kallay                                 : mrcc  (arbitrary order and MRCC methods)
   Frank Weinhold                                : gennbo (NPA and NBO analysis)
   Simon Mueller                                 : openCOSMO-RS
   Christopher J. Cramer and Donald G. Truhlar   : smd solvation model
   Lars Goerigk                                  : TD-DFT with DH, B97 family of functionals
   V. Asgeirsson, H. Jonsson                     : NEB implementation
   FAccTs GmbH                                   : IRC, NEB, NEB-TS, DLPNO-Multilevel, CI-OPT
                                                   MM, QMMM, 2- and 3-layer-ONIOM, Crystal-QMMM,
                                                   LR-CPCM, SF, NACMEs, symmetry and pop. for TD-DFT,
                                                   nearIR, NL-DFT gradient (VV10), updates on ESD,
                                                   ML-optimized integration grids, MBIS, APM,
                                                   GOAT, DOCKER, SOLVATOR, interface openCOSMO-RS
   S Lehtola, MJT Oliveira, MAL Marques          : LibXC Library
   Liviu Ungur et al                             : ANISO software


 Your calculation uses the libint2 library for the computation of 2-el integrals
 For citations please refer to: http://libint.valeyev.net

 Your ORCA version has been built with support for libXC version: 6.2.2
 For citations please refer to: https://libxc.gitlab.io

 This ORCA versions uses:
   CBLAS   interface :  Fast vector & matrix operations
   LAPACKE interface :  Fast linear algebra routines
   SCALAPACK package :  Parallel linear algebra routines
   Shared memory     :  Shared parallel matrices
   BLAS/LAPACK       :  OpenBLAS 0.3.27  USE64BITINT DYNAMIC_ARCH NO_AFFINITY Haswell SINGLE_THREADED
        Core in use  :  Haswell
   Copyright (c) 2011-2014, The OpenBLAS Project


NOTE: MaxCore=25000 MB was set to SCF,MP2,MDCI,CIPSI,MRCI and CIS
      => If you want to overwrite this, your respective input block should be placed after the MaxCore statement
Setting NCore(C ) from 2 to 2
Setting NCore(Mg) from 2 to 2
Setting NCore(O ) from 2 to 2
SCAN-COORDS
================================================================================

----- Orbital basis set information -----
Your calculation utilizes the basis: def2-SVP
   F. Weigend and R. Ahlrichs, Phys. Chem. Chem. Phys. 7, 3297 (2005).

The basis set includes element-specific modifications.

Your calculation utilizes the basis: aug-cc-pVQZ 
    H, B-Ne : Obtained from the ccRepo (grant-hill.group.shef.ac.uk/ccrepo) Feb. 2017
              R. A. Kendall, T. H. Dunning, Jr., R. J. Harrison, J. Chem. Phys. 96, 6796 (1992)
         He : Obtained from the ccRepo (grant-hill.group.shef.ac.uk/ccrepo) Feb. 2017
              D. E. Woon, T. H. Dunning, Jr., J. Chem. Phys. 100, 2975 (1994)
  Li-Be, Na : Obtained from the ccRepo (grant-hill.group.shef.ac.uk/ccrepo) Feb. 2017
              B. P. Prascher, D. E. Woon, K. A. Peterson, T. H. Dunning, Jr., A. K. Wilson, Theor. Chem. Acc. 128, 69 (2011)
         Mg : Obtained from the Peterson Research Group Website (tyr0.chem.wsu.edu/~kipeters) Feb. 2017
              B. P. Prascher, D. E. Woon, K. A. Peterson, T. H. Dunning, Jr., A. K. Wilson, Theor. Chem. Acc. 128, 69 (2011)
      Al-Ar : Obtained from the ccRepo (grant-hill.group.shef.ac.uk/ccrepo) Feb. 2017
              D. E. Woon, T. H. Dunning, Jr., J. Chem. Phys. 98, 1358 (1993)
      Sc-Zn : Obtained from the ccRepo (grant-hill.group.shef.ac.uk/ccrepo) Feb. 2017
              N. B. Balabanov, K. A. Peterson, J. Chem. Phys. 123, 064107 (2005)
              N. B. Balabanov, K. A. Peterson, J. Chem. Phys. 125, 074110 (2006)
      Ga-Kr : Obtained from the ccRepo (grant-hill.group.shef.ac.uk/ccrepo) Feb. 2017
              A. K. Wilson, D. E. Woon, K. A. Peterson, T. H. Dunning, Jr., J. Chem. Phys. 110, 7667 (1999)

Your calculation utilizes the basis: cc-pwCVQZ 
             H : cc-pVQZ. Obtained from the ccRepo (grant-hill.group.shef.ac.uk/ccrepo) Feb. 2017
                 T. H. Dunning, Jr., J. Chem. Phys. 90, 1007 (1989)
            He : cc-pVQZ. Obtained from the ccRepo (grant-hill.group.shef.ac.uk/ccrepo) Feb. 2017
                 D. E. Woon, T. H. Dunning, Jr., J. Chem. Phys. 100, 2975 (1994)
  Li-Be, Na-Mg : Obtained from the ccRepo (grant-hill.group.shef.ac.uk/ccrepo) Feb. 2017
                 B. P. Prascher, D. E. Woon, K. A. Peterson, T. H. Dunning, Jr., A. K. Wilson, Theor. Chem. Acc. 128, 69 (2011)
          B-Ne : Obtained from the ccRepo (grant-hill.group.shef.ac.uk/ccrepo) Feb. 2017
                 K. A. Peterson, T. H. Dunning, Jr., J. Chem. Phys. 117, 10548 (2002)
         Al-Ar : Obtained from the EMSL Basis Set Exchange (bse.pnl.gov) Feb. 2017
                 K. A. Peterson, T. H. Dunning, Jr., J. Chem. Phys. 117, 10548 (2002)
            Ca : Obtained from the Peterson Research Group Website (tyr0.chem.wsu.edu/~kipeters) Feb. 2017
                 J. Koput, K. A. Peterson, J. Phys. Chem. 106, 9595 (2002)
         Sc-Zn : Obtained from the ccRepo (grant-hill.group.shef.ac.uk/ccrepo) Feb. 2017
                 N. B. Balabanov, K. A. Peterson, J. Chem. Phys. 123, 064107 (2005)
                 N. B. Balabanov, K. A. Peterson, J. Chem. Phys. 125, 074110 (2006)
         Ga-Kr : Obtained from the Peterson Research Group Website (tyr0.chem.wsu.edu/~kipeters) Feb. 2017
                 K. A. Peterson, K. E. Yousaf, J. Chem. Phys. 133, 174116 (2010)
                 N. J. DeYonker, K. A. Peterson, A. K. Wilson, J. Phys. Chem. A 111, 11383 (2007)

----- AuxJ basis set information -----
Your calculation utilizes the auxiliary basis: def2/J
   F. Weigend, Phys. Chem. Chem. Phys. 8, 1057 (2006).

----- AuxC basis set information -----
The basis set includes element-specific modifications.

Your calculation utilizes the auxiliary basis: aug-cc-pVQZ/C 
  H-He, B-F, Al-Ar, Ga-Kr : Obtained from the EMSL Basis Set Exchange (bse.pnl.gov) Feb. 2017
                            F. Weigend, A. Kohn, C. Hattig, J. Chem. Phys. 116, 3175 (2002)
                   Be, Mg : Obtained from the TURBOMOLE 7.0 basis set library
                            C. Haettig, Phys. Chem. Chem. Phys. 7, 59 (2005)
                       Ne : Obtained from the EMSL Basis Set Exchange (bse.pnl.gov) Feb. 2017
                            C. Haettig, Phys. Chem. Chem. Phys. 7, 59 (2005)
                            F. Weigend, A. Kohn, C. Hattig, J. Chem. Phys. 116, 3175 (2002)
                    Sc-Zn : Obtained from the EMSL Basis Set Exchange (bse.pnl.gov) Feb. 2017
                            D. H. Bross, J. G. Hill, H. J. Werner, K. A. Peterson, J. Chem. Phys. 139, 094302 (2013)

Your calculation utilizes the AutoAux generation procedure.
  G. L. Stoychev, A. A. Auer, F. Neese, J. Chem. Theory Comput. 13, 554 (2017)

================================================================================
                                        WARNINGS
                       Please study these warnings very carefully!
================================================================================

WARNING: Old DensityContainer found on disk!
         Will remove this file - 
         If you want to keep old densities, please start your calculation with a different basename. 

WARNING: The globally-selected AuxJ basis set is optimized for use with ECPs
         Make sure a suitable alternative is explicitly given all heavy elements (Z>36)

WARNING: No MP2 level density has been requested!
         To calculate MP2 level properties use
         %mp2 Density relaxed end
         or
         %mp2 Density unrelaxed end

WARNING: Post HF methods need fully converged wavefunctions
  ===> : Setting SCFConvForced true
         You can overwrite this default with %scf ConvForced false 


WARNING: The chosen methods will break translational/rotational symmetry
  ===> : Will NOT project out the translational and rotational degrees of freedom
         of the Hessians, in case Hessians are calculated!

WARNING: The chosen methods will break translational symmetry
  ===> : Will NOT exploit translational invariance of the Hessians,
         in case Hessians are calculated!

WARNING: The chosen methods will break translational symmetry
  ===> : Will NOT make the numerical gradients translationally invariant,
         in case numerical gradients are calculated!

================================================================================
                                       INPUT FILE
================================================================================
NAME = orca.inp
|  1> ! TightSCF RI-MP2 RIJCOSX SlowConv DIIS 
|  2> %pal nprocs 8 end
|  3> %maxcore 25000
|  4> %pointcharges "orca.pc"
|  5> %method
|  6> Method hf
|  7> RI on
|  8> RunTyp Energy
|  9> NewNCore C 2 end
| 10> NewNCore Mg 2 end
| 11> NewNCore O 2 end
| 12> end
| 13> %basis
| 14> NewGTO C "aug-cc-pVQZ" end
| 15> NewGTO Mg "cc-pwCVQZ" end
| 16> NewGTO O "aug-cc-pVQZ" end
| 17> Aux "def2/J"
| 18> NewAuxCGTO C "aug-cc-pVQZ/C" end
| 19> NewAuxCGTO Mg "AutoAux" end
| 20> NewAuxCGTO O "aug-cc-pVQZ/C" end
| 21> end
| 22> %scf
| 23> HFTyp rhf
| 24> SCFMode Direct
| 25> sthresh 1e-6
| 26> AutoTRAHIter 60
| 27> MaxIter 1000
| 28> end
| 29> %coords
| 30> CTyp xyz
| 31> Mult 1
| 32> Units angs
| 33> Charge -32
| 34> coords
| 35> C:                      0.00000000000    0.00000000000    2.44102235837
| 36> O:                      0.00000000000    0.00000000000    3.58784217303
| 37> Mg                      0.00000000000    0.00000000000    0.00000000000
| 38> O                      -2.12018425659    0.00000000000    0.00567209089
| 39> O                       0.00000000000    2.12018425659    0.00567209089
| 40> O                       2.12018425659    0.00000000000    0.00567209089
| 41> O                       0.00000000000   -2.12018425659    0.00567209089
| 42> O                       0.00000000000    0.00000000000   -2.14129966123
| 43> Mg                     -2.11144262254    2.11144262254   -0.04367284424
| 44> Mg                      2.11144262254    2.11144262254   -0.04367284424
| 45> Mg                      2.11144262254   -2.11144262254   -0.04367284424
| 46> Mg                     -2.11144262254   -2.11144262254   -0.04367284424
| 47> O                      -2.11070451449    2.11070451449   -2.14923989662
| 48> O                       2.11070451449    2.11070451449   -2.14923989662
| 49> O                       2.11070451449   -2.11070451449   -2.14923989662
| 50> O                      -2.11070451449   -2.11070451449   -2.14923989662
| 51> Mg                     -4.22049352791    0.00000000000   -0.04269731856
| 52> Mg                      0.00000000000    4.22049352791   -0.04269731856
| 53> Mg                      4.22049352791    0.00000000000   -0.04269731856
| 54> Mg                      0.00000000000   -4.22049352791   -0.04269731856
| 55> O                      -4.22049352791    2.11209139723    0.00772802266
| 56> O                      -2.11209139723    4.22049352791    0.00772802266
| 57> O                       2.11209139723    4.22049352791    0.00772802266
| 58> O                       4.22049352791    2.11209139723    0.00772802266
| 59> O                       4.22049352791   -2.11209139723    0.00772802266
| 60> O                       2.11209139723   -4.22049352791    0.00772802266
| 61> O                      -2.11209139723   -4.22049352791    0.00772802266
| 62> O                      -4.22049352791   -2.11209139723    0.00772802266
| 63> O                      -4.22049352791    0.00000000000   -2.15129719490
| 64> O                       0.00000000000    4.22049352791   -2.15129719490
| 65> O                       4.22049352791    0.00000000000   -2.15129719490
| 66> O                       0.00000000000   -4.22049352791   -2.15129719490
| 67> O                      -6.32080279923    0.00000000000    0.00567209089
| 68> O                       0.00000000000    6.32080279923    0.00567209089
| 69> O                       6.32080279923    0.00000000000    0.00567209089
| 70> O                       0.00000000000   -6.32080279923    0.00567209089
| 71> Mg>    2.00000000000   -2.10705287155    0.00000000000   -2.14155206950
| 72> NewECP
| 73> N_core 0
| 74> lmax f
| 75> s 1
| 76> 1      1.732000000   14.676000000 2
| 77> p 1
| 78> 1      1.115000000    5.175700000 2
| 79> d 1
| 80> 1      1.203000000   -1.816000000 2
| 81> f 1
| 82> 1      1.000000000    0.000000000 2
| 83> end
| 84> Mg>    2.00000000000    0.00000000000    2.10705287155   -2.14155206950
| 85> NewECP
| 86> N_core 0
| 87> lmax f
| 88> s 1
| 89> 1      1.732000000   14.676000000 2
| 90> p 1
| 91> 1      1.115000000    5.175700000 2
| 92> d 1
| 93> 1      1.203000000   -1.816000000 2
| 94> f 1
| 95> 1      1.000000000    0.000000000 2
| 96> end
| 97> Mg>    2.00000000000    2.10705287155    0.00000000000   -2.14155206950
| 98> NewECP
| 99> N_core 0
|100> lmax f
|101> s 1
|102> 1      1.732000000   14.676000000 2
|103> p 1
|104> 1      1.115000000    5.175700000 2
|105> d 1
|106> 1      1.203000000   -1.816000000 2
|107> f 1
|108> 1      1.000000000    0.000000000 2
|109> end
|110> Mg>    2.00000000000    0.00000000000   -2.10705287155   -2.14155206950
|111> NewECP
|112> N_core 0
|113> lmax f
|114> s 1
|115> 1      1.732000000   14.676000000 2
|116> p 1
|117> 1      1.115000000    5.175700000 2
|118> d 1
|119> 1      1.203000000   -1.816000000 2
|120> f 1
|121> 1      1.000000000    0.000000000 2
|122> end
|123> Mg>    2.00000000000    0.00000000000    0.00000000000   -4.26789528527
|124> NewECP
|125> N_core 0
|126> lmax f
|127> s 1
|128> 1      1.732000000   14.676000000 2
|129> p 1
|130> 1      1.115000000    5.175700000 2
|131> d 1
|132> 1      1.203000000   -1.816000000 2
|133> f 1
|134> 1      1.000000000    0.000000000 2
|135> end
|136> Mg>    2.00000000000   -4.22049352791    2.10973412517   -2.14445912302
|137> NewECP
|138> N_core 0
|139> lmax f
|140> s 1
|141> 1      1.732000000   14.676000000 2
|142> p 1
|143> 1      1.115000000    5.175700000 2
|144> d 1
|145> 1      1.203000000   -1.816000000 2
|146> f 1
|147> 1      1.000000000    0.000000000 2
|148> end
|149> Mg>    2.00000000000   -2.10973412517    4.22049352791   -2.14445912302
|150> NewECP
|151> N_core 0
|152> lmax f
|153> s 1
|154> 1      1.732000000   14.676000000 2
|155> p 1
|156> 1      1.115000000    5.175700000 2
|157> d 1
|158> 1      1.203000000   -1.816000000 2
|159> f 1
|160> 1      1.000000000    0.000000000 2
|161> end
|162> Mg>    2.00000000000    2.10973412517    4.22049352791   -2.14445912302
|163> NewECP
|164> N_core 0
|165> lmax f
|166> s 1
|167> 1      1.732000000   14.676000000 2
|168> p 1
|169> 1      1.115000000    5.175700000 2
|170> d 1
|171> 1      1.203000000   -1.816000000 2
|172> f 1
|173> 1      1.000000000    0.000000000 2
|174> end
|175> Mg>    2.00000000000    4.22049352791    2.10973412517   -2.14445912302
|176> NewECP
|177> N_core 0
|178> lmax f
|179> s 1
|180> 1      1.732000000   14.676000000 2
|181> p 1
|182> 1      1.115000000    5.175700000 2
|183> d 1
|184> 1      1.203000000   -1.816000000 2
|185> f 1
|186> 1      1.000000000    0.000000000 2
|187> end
|188> Mg>    2.00000000000    4.22049352791   -2.10973412517   -2.14445912302
|189> NewECP
|190> N_core 0
|191> lmax f
|192> s 1
|193> 1      1.732000000   14.676000000 2
|194> p 1
|195> 1      1.115000000    5.175700000 2
|196> d 1
|197> 1      1.203000000   -1.816000000 2
|198> f 1
|199> 1      1.000000000    0.000000000 2
|200> end
|201> Mg>    2.00000000000    2.10973412517   -4.22049352791   -2.14445912302
|202> NewECP
|203> N_core 0
|204> lmax f
|205> s 1
|206> 1      1.732000000   14.676000000 2
|207> p 1
|208> 1      1.115000000    5.175700000 2
|209> d 1
|210> 1      1.203000000   -1.816000000 2
|211> f 1
|212> 1      1.000000000    0.000000000 2
|213> end
|214> Mg>    2.00000000000   -2.10973412517   -4.22049352791   -2.14445912302
|215> NewECP
|216> N_core 0
|217> lmax f
|218> s 1
|219> 1      1.732000000   14.676000000 2
|220> p 1
|221> 1      1.115000000    5.175700000 2
|222> d 1
|223> 1      1.203000000   -1.816000000 2
|224> f 1
|225> 1      1.000000000    0.000000000 2
|226> end
|227> Mg>    2.00000000000   -4.22049352791   -2.10973412517   -2.14445912302
|228> NewECP
|229> N_core 0
|230> lmax f
|231> s 1
|232> 1      1.732000000   14.676000000 2
|233> p 1
|234> 1      1.115000000    5.175700000 2
|235> d 1
|236> 1      1.203000000   -1.816000000 2
|237> f 1
|238> 1      1.000000000    0.000000000 2
|239> end
|240> Mg>    2.00000000000   -2.11024676395    2.11024676395   -4.26789528527
|241> NewECP
|242> N_core 0
|243> lmax f
|244> s 1
|245> 1      1.732000000   14.676000000 2
|246> p 1
|247> 1      1.115000000    5.175700000 2
|248> d 1
|249> 1      1.203000000   -1.816000000 2
|250> f 1
|251> 1      1.000000000    0.000000000 2
|252> end
|253> Mg>    2.00000000000    2.11024676395    2.11024676395   -4.26789528527
|254> NewECP
|255> N_core 0
|256> lmax f
|257> s 1
|258> 1      1.732000000   14.676000000 2
|259> p 1
|260> 1      1.115000000    5.175700000 2
|261> d 1
|262> 1      1.203000000   -1.816000000 2
|263> f 1
|264> 1      1.000000000    0.000000000 2
|265> end
|266> Mg>    2.00000000000    2.11024676395   -2.11024676395   -4.26789528527
|267> NewECP
|268> N_core 0
|269> lmax f
|270> s 1
|271> 1      1.732000000   14.676000000 2
|272> p 1
|273> 1      1.115000000    5.175700000 2
|274> d 1
|275> 1      1.203000000   -1.816000000 2
|276> f 1
|277> 1      1.000000000    0.000000000 2
|278> end
|279> Mg>    2.00000000000   -2.11024676395   -2.11024676395   -4.26789528527
|280> NewECP
|281> N_core 0
|282> lmax f
|283> s 1
|284> 1      1.732000000   14.676000000 2
|285> p 1
|286> 1      1.115000000    5.175700000 2
|287> d 1
|288> 1      1.203000000   -1.816000000 2
|289> f 1
|290> 1      1.000000000    0.000000000 2
|291> end
|292> Mg>    2.00000000000   -4.22049352791    4.22049352791   -0.03992370948
|293> NewECP
|294> N_core 0
|295> lmax f
|296> s 1
|297> 1      1.732000000   14.676000000 2
|298> p 1
|299> 1      1.115000000    5.175700000 2
|300> d 1
|301> 1      1.203000000   -1.816000000 2
|302> f 1
|303> 1      1.000000000    0.000000000 2
|304> end
|305> Mg>    2.00000000000    4.22049352791    4.22049352791   -0.03992370948
|306> NewECP
|307> N_core 0
|308> lmax f
|309> s 1
|310> 1      1.732000000   14.676000000 2
|311> p 1
|312> 1      1.115000000    5.175700000 2
|313> d 1
|314> 1      1.203000000   -1.816000000 2
|315> f 1
|316> 1      1.000000000    0.000000000 2
|317> end
|318> Mg>    2.00000000000    4.22049352791   -4.22049352791   -0.03992370948
|319> NewECP
|320> N_core 0
|321> lmax f
|322> s 1
|323> 1      1.732000000   14.676000000 2
|324> p 1
|325> 1      1.115000000    5.175700000 2
|326> d 1
|327> 1      1.203000000   -1.816000000 2
|328> f 1
|329> 1      1.000000000    0.000000000 2
|330> end
|331> Mg>    2.00000000000   -4.22049352791   -4.22049352791   -0.03992370948
|332> NewECP
|333> N_core 0
|334> lmax f
|335> s 1
|336> 1      1.732000000   14.676000000 2
|337> p 1
|338> 1      1.115000000    5.175700000 2
|339> d 1
|340> 1      1.203000000   -1.816000000 2
|341> f 1
|342> 1      1.000000000    0.000000000 2
|343> end
|344> Mg>    2.00000000000   -4.22049352791    0.00000000000   -4.26789528527
|345> NewECP
|346> N_core 0
|347> lmax f
|348> s 1
|349> 1      1.732000000   14.676000000 2
|350> p 1
|351> 1      1.115000000    5.175700000 2
|352> d 1
|353> 1      1.203000000   -1.816000000 2
|354> f 1
|355> 1      1.000000000    0.000000000 2
|356> end
|357> Mg>    2.00000000000    0.00000000000    4.22049352791   -4.26789528527
|358> NewECP
|359> N_core 0
|360> lmax f
|361> s 1
|362> 1      1.732000000   14.676000000 2
|363> p 1
|364> 1      1.115000000    5.175700000 2
|365> d 1
|366> 1      1.203000000   -1.816000000 2
|367> f 1
|368> 1      1.000000000    0.000000000 2
|369> end
|370> Mg>    2.00000000000    4.22049352791    0.00000000000   -4.26789528527
|371> NewECP
|372> N_core 0
|373> lmax f
|374> s 1
|375> 1      1.732000000   14.676000000 2
|376> p 1
|377> 1      1.115000000    5.175700000 2
|378> d 1
|379> 1      1.203000000   -1.816000000 2
|380> f 1
|381> 1      1.000000000    0.000000000 2
|382> end
|383> Mg>    2.00000000000    0.00000000000   -4.22049352791   -4.26789528527
|384> NewECP
|385> N_core 0
|386> lmax f
|387> s 1
|388> 1      1.732000000   14.676000000 2
|389> p 1
|390> 1      1.115000000    5.175700000 2
|391> d 1
|392> 1      1.203000000   -1.816000000 2
|393> f 1
|394> 1      1.000000000    0.000000000 2
|395> end
|396> Mg>    2.00000000000   -6.32954443328    2.11144262254   -0.04367284424
|397> NewECP
|398> N_core 0
|399> lmax f
|400> s 1
|401> 1      1.732000000   14.676000000 2
|402> p 1
|403> 1      1.115000000    5.175700000 2
|404> d 1
|405> 1      1.203000000   -1.816000000 2
|406> f 1
|407> 1      1.000000000    0.000000000 2
|408> end
|409> Mg>    2.00000000000   -2.11144262254    6.32954443328   -0.04367284424
|410> NewECP
|411> N_core 0
|412> lmax f
|413> s 1
|414> 1      1.732000000   14.676000000 2
|415> p 1
|416> 1      1.115000000    5.175700000 2
|417> d 1
|418> 1      1.203000000   -1.816000000 2
|419> f 1
|420> 1      1.000000000    0.000000000 2
|421> end
|422> Mg>    2.00000000000    2.11144262254    6.32954443328   -0.04367284424
|423> NewECP
|424> N_core 0
|425> lmax f
|426> s 1
|427> 1      1.732000000   14.676000000 2
|428> p 1
|429> 1      1.115000000    5.175700000 2
|430> d 1
|431> 1      1.203000000   -1.816000000 2
|432> f 1
|433> 1      1.000000000    0.000000000 2
|434> end
|435> Mg>    2.00000000000    6.32954443328    2.11144262254   -0.04367284424
|436> NewECP
|437> N_core 0
|438> lmax f
|439> s 1
|440> 1      1.732000000   14.676000000 2
|441> p 1
|442> 1      1.115000000    5.175700000 2
|443> d 1
|444> 1      1.203000000   -1.816000000 2
|445> f 1
|446> 1      1.000000000    0.000000000 2
|447> end
|448> Mg>    2.00000000000    6.32954443328   -2.11144262254   -0.04367284424
|449> NewECP
|450> N_core 0
|451> lmax f
|452> s 1
|453> 1      1.732000000   14.676000000 2
|454> p 1
|455> 1      1.115000000    5.175700000 2
|456> d 1
|457> 1      1.203000000   -1.816000000 2
|458> f 1
|459> 1      1.000000000    0.000000000 2
|460> end
|461> Mg>    2.00000000000    2.11144262254   -6.32954443328   -0.04367284424
|462> NewECP
|463> N_core 0
|464> lmax f
|465> s 1
|466> 1      1.732000000   14.676000000 2
|467> p 1
|468> 1      1.115000000    5.175700000 2
|469> d 1
|470> 1      1.203000000   -1.816000000 2
|471> f 1
|472> 1      1.000000000    0.000000000 2
|473> end
|474> Mg>    2.00000000000   -2.11144262254   -6.32954443328   -0.04367284424
|475> NewECP
|476> N_core 0
|477> lmax f
|478> s 1
|479> 1      1.732000000   14.676000000 2
|480> p 1
|481> 1      1.115000000    5.175700000 2
|482> d 1
|483> 1      1.203000000   -1.816000000 2
|484> f 1
|485> 1      1.000000000    0.000000000 2
|486> end
|487> Mg>    2.00000000000   -6.32954443328   -2.11144262254   -0.04367284424
|488> NewECP
|489> N_core 0
|490> lmax f
|491> s 1
|492> 1      1.732000000   14.676000000 2
|493> p 1
|494> 1      1.115000000    5.175700000 2
|495> d 1
|496> 1      1.203000000   -1.816000000 2
|497> f 1
|498> 1      1.000000000    0.000000000 2
|499> end
|500> Mg>    2.00000000000   -6.33393418427    0.00000000000   -2.14155206950
|501> NewECP
|502> N_core 0
|503> lmax f
|504> s 1
|505> 1      1.732000000   14.676000000 2
|506> p 1
|507> 1      1.115000000    5.175700000 2
|508> d 1
|509> 1      1.203000000   -1.816000000 2
|510> f 1
|511> 1      1.000000000    0.000000000 2
|512> end
|513> Mg>    2.00000000000    0.00000000000    6.33393418427   -2.14155206950
|514> NewECP
|515> N_core 0
|516> lmax f
|517> s 1
|518> 1      1.732000000   14.676000000 2
|519> p 1
|520> 1      1.115000000    5.175700000 2
|521> d 1
|522> 1      1.203000000   -1.816000000 2
|523> f 1
|524> 1      1.000000000    0.000000000 2
|525> end
|526> Mg>    2.00000000000    6.33393418427    0.00000000000   -2.14155206950
|527> NewECP
|528> N_core 0
|529> lmax f
|530> s 1
|531> 1      1.732000000   14.676000000 2
|532> p 1
|533> 1      1.115000000    5.175700000 2
|534> d 1
|535> 1      1.203000000   -1.816000000 2
|536> f 1
|537> 1      1.000000000    0.000000000 2
|538> end
|539> Mg>    2.00000000000    0.00000000000   -6.33393418427   -2.14155206950
|540> NewECP
|541> N_core 0
|542> lmax f
|543> s 1
|544> 1      1.732000000   14.676000000 2
|545> p 1
|546> 1      1.115000000    5.175700000 2
|547> d 1
|548> 1      1.203000000   -1.816000000 2
|549> f 1
|550> 1      1.000000000    0.000000000 2
|551> end
|552> Mg>    2.00000000000   -2.11024676395    0.00000000000   -6.37814204923
|553> NewECP
|554> N_core 0
|555> lmax f
|556> s 1
|557> 1      1.732000000   14.676000000 2
|558> p 1
|559> 1      1.115000000    5.175700000 2
|560> d 1
|561> 1      1.203000000   -1.816000000 2
|562> f 1
|563> 1      1.000000000    0.000000000 2
|564> end
|565> Mg>    2.00000000000    0.00000000000    2.11024676395   -6.37814204923
|566> NewECP
|567> N_core 0
|568> lmax f
|569> s 1
|570> 1      1.732000000   14.676000000 2
|571> p 1
|572> 1      1.115000000    5.175700000 2
|573> d 1
|574> 1      1.203000000   -1.816000000 2
|575> f 1
|576> 1      1.000000000    0.000000000 2
|577> end
|578> Mg>    2.00000000000    2.11024676395    0.00000000000   -6.37814204923
|579> NewECP
|580> N_core 0
|581> lmax f
|582> s 1
|583> 1      1.732000000   14.676000000 2
|584> p 1
|585> 1      1.115000000    5.175700000 2
|586> d 1
|587> 1      1.203000000   -1.816000000 2
|588> f 1
|589> 1      1.000000000    0.000000000 2
|590> end
|591> Mg>    2.00000000000    0.00000000000   -2.11024676395   -6.37814204923
|592> NewECP
|593> N_core 0
|594> lmax f
|595> s 1
|596> 1      1.732000000   14.676000000 2
|597> p 1
|598> 1      1.115000000    5.175700000 2
|599> d 1
|600> 1      1.203000000   -1.816000000 2
|601> f 1
|602> 1      1.000000000    0.000000000 2
|603> end
|604> Mg>    2.00000000000   -4.22049352791    4.22049352791   -4.26789528527
|605> NewECP
|606> N_core 0
|607> lmax f
|608> s 1
|609> 1      1.732000000   14.676000000 2
|610> p 1
|611> 1      1.115000000    5.175700000 2
|612> d 1
|613> 1      1.203000000   -1.816000000 2
|614> f 1
|615> 1      1.000000000    0.000000000 2
|616> end
|617> Mg>    2.00000000000    4.22049352791    4.22049352791   -4.26789528527
|618> NewECP
|619> N_core 0
|620> lmax f
|621> s 1
|622> 1      1.732000000   14.676000000 2
|623> p 1
|624> 1      1.115000000    5.175700000 2
|625> d 1
|626> 1      1.203000000   -1.816000000 2
|627> f 1
|628> 1      1.000000000    0.000000000 2
|629> end
|630> Mg>    2.00000000000    4.22049352791   -4.22049352791   -4.26789528527
|631> NewECP
|632> N_core 0
|633> lmax f
|634> s 1
|635> 1      1.732000000   14.676000000 2
|636> p 1
|637> 1      1.115000000    5.175700000 2
|638> d 1
|639> 1      1.203000000   -1.816000000 2
|640> f 1
|641> 1      1.000000000    0.000000000 2
|642> end
|643> Mg>    2.00000000000   -4.22049352791   -4.22049352791   -4.26789528527
|644> NewECP
|645> N_core 0
|646> lmax f
|647> s 1
|648> 1      1.732000000   14.676000000 2
|649> p 1
|650> 1      1.115000000    5.175700000 2
|651> d 1
|652> 1      1.203000000   -1.816000000 2
|653> f 1
|654> 1      1.000000000    0.000000000 2
|655> end
|656> Mg>    2.00000000000   -6.33125293065    4.22049352791   -2.14445912302
|657> NewECP
|658> N_core 0
|659> lmax f
|660> s 1
|661> 1      1.732000000   14.676000000 2
|662> p 1
|663> 1      1.115000000    5.175700000 2
|664> d 1
|665> 1      1.203000000   -1.816000000 2
|666> f 1
|667> 1      1.000000000    0.000000000 2
|668> end
|669> Mg>    2.00000000000   -4.22049352791    6.33125293065   -2.14445912302
|670> NewECP
|671> N_core 0
|672> lmax f
|673> s 1
|674> 1      1.732000000   14.676000000 2
|675> p 1
|676> 1      1.115000000    5.175700000 2
|677> d 1
|678> 1      1.203000000   -1.816000000 2
|679> f 1
|680> 1      1.000000000    0.000000000 2
|681> end
|682> Mg>    2.00000000000    4.22049352791    6.33125293065   -2.14445912302
|683> NewECP
|684> N_core 0
|685> lmax f
|686> s 1
|687> 1      1.732000000   14.676000000 2
|688> p 1
|689> 1      1.115000000    5.175700000 2
|690> d 1
|691> 1      1.203000000   -1.816000000 2
|692> f 1
|693> 1      1.000000000    0.000000000 2
|694> end
|695> Mg>    2.00000000000    6.33125293065    4.22049352791   -2.14445912302
|696> NewECP
|697> N_core 0
|698> lmax f
|699> s 1
|700> 1      1.732000000   14.676000000 2
|701> p 1
|702> 1      1.115000000    5.175700000 2
|703> d 1
|704> 1      1.203000000   -1.816000000 2
|705> f 1
|706> 1      1.000000000    0.000000000 2
|707> end
|708> Mg>    2.00000000000    6.33125293065   -4.22049352791   -2.14445912302
|709> NewECP
|710> N_core 0
|711> lmax f
|712> s 1
|713> 1      1.732000000   14.676000000 2
|714> p 1
|715> 1      1.115000000    5.175700000 2
|716> d 1
|717> 1      1.203000000   -1.816000000 2
|718> f 1
|719> 1      1.000000000    0.000000000 2
|720> end
|721> Mg>    2.00000000000    4.22049352791   -6.33125293065   -2.14445912302
|722> NewECP
|723> N_core 0
|724> lmax f
|725> s 1
|726> 1      1.732000000   14.676000000 2
|727> p 1
|728> 1      1.115000000    5.175700000 2
|729> d 1
|730> 1      1.203000000   -1.816000000 2
|731> f 1
|732> 1      1.000000000    0.000000000 2
|733> end
|734> Mg>    2.00000000000   -4.22049352791   -6.33125293065   -2.14445912302
|735> NewECP
|736> N_core 0
|737> lmax f
|738> s 1
|739> 1      1.732000000   14.676000000 2
|740> p 1
|741> 1      1.115000000    5.175700000 2
|742> d 1
|743> 1      1.203000000   -1.816000000 2
|744> f 1
|745> 1      1.000000000    0.000000000 2
|746> end
|747> Mg>    2.00000000000   -6.33125293065   -4.22049352791   -2.14445912302
|748> NewECP
|749> N_core 0
|750> lmax f
|751> s 1
|752> 1      1.732000000   14.676000000 2
|753> p 1
|754> 1      1.115000000    5.175700000 2
|755> d 1
|756> 1      1.203000000   -1.816000000 2
|757> f 1
|758> 1      1.000000000    0.000000000 2
|759> end
|760> Mg>    2.00000000000   -6.33074029186    2.11024676395   -4.26789528527
|761> NewECP
|762> N_core 0
|763> lmax f
|764> s 1
|765> 1      1.732000000   14.676000000 2
|766> p 1
|767> 1      1.115000000    5.175700000 2
|768> d 1
|769> 1      1.203000000   -1.816000000 2
|770> f 1
|771> 1      1.000000000    0.000000000 2
|772> end
|773> Mg>    2.00000000000   -2.11024676395    6.33074029186   -4.26789528527
|774> NewECP
|775> N_core 0
|776> lmax f
|777> s 1
|778> 1      1.732000000   14.676000000 2
|779> p 1
|780> 1      1.115000000    5.175700000 2
|781> d 1
|782> 1      1.203000000   -1.816000000 2
|783> f 1
|784> 1      1.000000000    0.000000000 2
|785> end
|786> Mg>    2.00000000000    2.11024676395    6.33074029186   -4.26789528527
|787> NewECP
|788> N_core 0
|789> lmax f
|790> s 1
|791> 1      1.732000000   14.676000000 2
|792> p 1
|793> 1      1.115000000    5.175700000 2
|794> d 1
|795> 1      1.203000000   -1.816000000 2
|796> f 1
|797> 1      1.000000000    0.000000000 2
|798> end
|799> Mg>    2.00000000000    6.33074029186    2.11024676395   -4.26789528527
|800> NewECP
|801> N_core 0
|802> lmax f
|803> s 1
|804> 1      1.732000000   14.676000000 2
|805> p 1
|806> 1      1.115000000    5.175700000 2
|807> d 1
|808> 1      1.203000000   -1.816000000 2
|809> f 1
|810> 1      1.000000000    0.000000000 2
|811> end
|812> Mg>    2.00000000000    6.33074029186   -2.11024676395   -4.26789528527
|813> NewECP
|814> N_core 0
|815> lmax f
|816> s 1
|817> 1      1.732000000   14.676000000 2
|818> p 1
|819> 1      1.115000000    5.175700000 2
|820> d 1
|821> 1      1.203000000   -1.816000000 2
|822> f 1
|823> 1      1.000000000    0.000000000 2
|824> end
|825> Mg>    2.00000000000    2.11024676395   -6.33074029186   -4.26789528527
|826> NewECP
|827> N_core 0
|828> lmax f
|829> s 1
|830> 1      1.732000000   14.676000000 2
|831> p 1
|832> 1      1.115000000    5.175700000 2
|833> d 1
|834> 1      1.203000000   -1.816000000 2
|835> f 1
|836> 1      1.000000000    0.000000000 2
|837> end
|838> Mg>    2.00000000000   -2.11024676395   -6.33074029186   -4.26789528527
|839> NewECP
|840> N_core 0
|841> lmax f
|842> s 1
|843> 1      1.732000000   14.676000000 2
|844> p 1
|845> 1      1.115000000    5.175700000 2
|846> d 1
|847> 1      1.203000000   -1.816000000 2
|848> f 1
|849> 1      1.000000000    0.000000000 2
|850> end
|851> Mg>    2.00000000000   -6.33074029186   -2.11024676395   -4.26789528527
|852> NewECP
|853> N_core 0
|854> lmax f
|855> s 1
|856> 1      1.732000000   14.676000000 2
|857> p 1
|858> 1      1.115000000    5.175700000 2
|859> d 1
|860> 1      1.203000000   -1.816000000 2
|861> f 1
|862> 1      1.000000000    0.000000000 2
|863> end
|864> Mg>    2.00000000000   -4.22049352791    2.11024676395   -6.37814204923
|865> NewECP
|866> N_core 0
|867> lmax f
|868> s 1
|869> 1      1.732000000   14.676000000 2
|870> p 1
|871> 1      1.115000000    5.175700000 2
|872> d 1
|873> 1      1.203000000   -1.816000000 2
|874> f 1
|875> 1      1.000000000    0.000000000 2
|876> end
|877> Mg>    2.00000000000   -2.11024676395    4.22049352791   -6.37814204923
|878> NewECP
|879> N_core 0
|880> lmax f
|881> s 1
|882> 1      1.732000000   14.676000000 2
|883> p 1
|884> 1      1.115000000    5.175700000 2
|885> d 1
|886> 1      1.203000000   -1.816000000 2
|887> f 1
|888> 1      1.000000000    0.000000000 2
|889> end
|890> Mg>    2.00000000000    2.11024676395    4.22049352791   -6.37814204923
|891> NewECP
|892> N_core 0
|893> lmax f
|894> s 1
|895> 1      1.732000000   14.676000000 2
|896> p 1
|897> 1      1.115000000    5.175700000 2
|898> d 1
|899> 1      1.203000000   -1.816000000 2
|900> f 1
|901> 1      1.000000000    0.000000000 2
|902> end
|903> Mg>    2.00000000000    4.22049352791    2.11024676395   -6.37814204923
|904> NewECP
|905> N_core 0
|906> lmax f
|907> s 1
|908> 1      1.732000000   14.676000000 2
|909> p 1
|910> 1      1.115000000    5.175700000 2
|911> d 1
|912> 1      1.203000000   -1.816000000 2
|913> f 1
|914> 1      1.000000000    0.000000000 2
|915> end
|916> Mg>    2.00000000000    4.22049352791   -2.11024676395   -6.37814204923
|917> NewECP
|918> N_core 0
|919> lmax f
|920> s 1
|921> 1      1.732000000   14.676000000 2
|922> p 1
|923> 1      1.115000000    5.175700000 2
|924> d 1
|925> 1      1.203000000   -1.816000000 2
|926> f 1
|927> 1      1.000000000    0.000000000 2
|928> end
|929> Mg>    2.00000000000    2.11024676395   -4.22049352791   -6.37814204923
|930> NewECP
|931> N_core 0
|932> lmax f
|933> s 1
|934> 1      1.732000000   14.676000000 2
|935> p 1
|936> 1      1.115000000    5.175700000 2
|937> d 1
|938> 1      1.203000000   -1.816000000 2
|939> f 1
|940> 1      1.000000000    0.000000000 2
|941> end
|942> Mg>    2.00000000000   -2.11024676395   -4.22049352791   -6.37814204923
|943> NewECP
|944> N_core 0
|945> lmax f
|946> s 1
|947> 1      1.732000000   14.676000000 2
|948> p 1
|949> 1      1.115000000    5.175700000 2
|950> d 1
|951> 1      1.203000000   -1.816000000 2
|952> f 1
|953> 1      1.000000000    0.000000000 2
|954> end
|955> Mg>    2.00000000000   -4.22049352791   -2.11024676395   -6.37814204923
|956> NewECP
|957> N_core 0
|958> lmax f
|959> s 1
|960> 1      1.732000000   14.676000000 2
|961> p 1
|962> 1      1.115000000    5.175700000 2
|963> d 1
|964> 1      1.203000000   -1.816000000 2
|965> f 1
|966> 1      1.000000000    0.000000000 2
|967> end
|968> Mg>    2.00000000000   -8.44098705582    0.00000000000    0.00000000000
|969> NewECP
|970> N_core 0
|971> lmax f
|972> s 1
|973> 1      1.732000000   14.676000000 2
|974> p 1
|975> 1      1.115000000    5.175700000 2
|976> d 1
|977> 1      1.203000000   -1.816000000 2
|978> f 1
|979> 1      1.000000000    0.000000000 2
|980> end
|981> Mg>    2.00000000000    0.00000000000    8.44098705582    0.00000000000
|982> NewECP
|983> N_core 0
|984> lmax f
|985> s 1
|986> 1      1.732000000   14.676000000 2
|987> p 1
|988> 1      1.115000000    5.175700000 2
|989> d 1
|990> 1      1.203000000   -1.816000000 2
|991> f 1
|992> 1      1.000000000    0.000000000 2
|993> end
|994> Mg>    2.00000000000    8.44098705582    0.00000000000    0.00000000000
|995> NewECP
|996> N_core 0
|997> lmax f
|998> s 1
|999> 1      1.732000000   14.676000000 2
|1000> p 1
|1001> 1      1.115000000    5.175700000 2
|1002> d 1
|1003> 1      1.203000000   -1.816000000 2
|1004> f 1
|1005> 1      1.000000000    0.000000000 2
|1006> end
|1007> Mg>    2.00000000000    0.00000000000   -8.44098705582    0.00000000000
|1008> NewECP
|1009> N_core 0
|1010> lmax f
|1011> s 1
|1012> 1      1.732000000   14.676000000 2
|1013> p 1
|1014> 1      1.115000000    5.175700000 2
|1015> d 1
|1016> 1      1.203000000   -1.816000000 2
|1017> f 1
|1018> 1      1.000000000    0.000000000 2
|1019> end
|1020> Mg>    2.00000000000   -6.32954443328    6.32954443328   -0.04367284424
|1021> NewECP
|1022> N_core 0
|1023> lmax f
|1024> s 1
|1025> 1      1.732000000   14.676000000 2
|1026> p 1
|1027> 1      1.115000000    5.175700000 2
|1028> d 1
|1029> 1      1.203000000   -1.816000000 2
|1030> f 1
|1031> 1      1.000000000    0.000000000 2
|1032> end
|1033> Mg>    2.00000000000    6.32954443328    6.32954443328   -0.04367284424
|1034> NewECP
|1035> N_core 0
|1036> lmax f
|1037> s 1
|1038> 1      1.732000000   14.676000000 2
|1039> p 1
|1040> 1      1.115000000    5.175700000 2
|1041> d 1
|1042> 1      1.203000000   -1.816000000 2
|1043> f 1
|1044> 1      1.000000000    0.000000000 2
|1045> end
|1046> Mg>    2.00000000000    6.32954443328   -6.32954443328   -0.04367284424
|1047> NewECP
|1048> N_core 0
|1049> lmax f
|1050> s 1
|1051> 1      1.732000000   14.676000000 2
|1052> p 1
|1053> 1      1.115000000    5.175700000 2
|1054> d 1
|1055> 1      1.203000000   -1.816000000 2
|1056> f 1
|1057> 1      1.000000000    0.000000000 2
|1058> end
|1059> Mg>    2.00000000000   -6.32954443328   -6.32954443328   -0.04367284424
|1060> NewECP
|1061> N_core 0
|1062> lmax f
|1063> s 1
|1064> 1      1.732000000   14.676000000 2
|1065> p 1
|1066> 1      1.115000000    5.175700000 2
|1067> d 1
|1068> 1      1.203000000   -1.816000000 2
|1069> f 1
|1070> 1      1.000000000    0.000000000 2
|1071> end
|1072> Mg>    2.00000000000   -8.44098705582    2.10705287155   -2.14155206950
|1073> NewECP
|1074> N_core 0
|1075> lmax f
|1076> s 1
|1077> 1      1.732000000   14.676000000 2
|1078> p 1
|1079> 1      1.115000000    5.175700000 2
|1080> d 1
|1081> 1      1.203000000   -1.816000000 2
|1082> f 1
|1083> 1      1.000000000    0.000000000 2
|1084> end
|1085> Mg>    2.00000000000   -2.10705287155    8.44098705582   -2.14155206950
|1086> NewECP
|1087> N_core 0
|1088> lmax f
|1089> s 1
|1090> 1      1.732000000   14.676000000 2
|1091> p 1
|1092> 1      1.115000000    5.175700000 2
|1093> d 1
|1094> 1      1.203000000   -1.816000000 2
|1095> f 1
|1096> 1      1.000000000    0.000000000 2
|1097> end
|1098> Mg>    2.00000000000    2.10705287155    8.44098705582   -2.14155206950
|1099> NewECP
|1100> N_core 0
|1101> lmax f
|1102> s 1
|1103> 1      1.732000000   14.676000000 2
|1104> p 1
|1105> 1      1.115000000    5.175700000 2
|1106> d 1
|1107> 1      1.203000000   -1.816000000 2
|1108> f 1
|1109> 1      1.000000000    0.000000000 2
|1110> end
|1111> Mg>    2.00000000000    8.44098705582    2.10705287155   -2.14155206950
|1112> NewECP
|1113> N_core 0
|1114> lmax f
|1115> s 1
|1116> 1      1.732000000   14.676000000 2
|1117> p 1
|1118> 1      1.115000000    5.175700000 2
|1119> d 1
|1120> 1      1.203000000   -1.816000000 2
|1121> f 1
|1122> 1      1.000000000    0.000000000 2
|1123> end
|1124> Mg>    2.00000000000    8.44098705582   -2.10705287155   -2.14155206950
|1125> NewECP
|1126> N_core 0
|1127> lmax f
|1128> s 1
|1129> 1      1.732000000   14.676000000 2
|1130> p 1
|1131> 1      1.115000000    5.175700000 2
|1132> d 1
|1133> 1      1.203000000   -1.816000000 2
|1134> f 1
|1135> 1      1.000000000    0.000000000 2
|1136> end
|1137> Mg>    2.00000000000    2.10705287155   -8.44098705582   -2.14155206950
|1138> NewECP
|1139> N_core 0
|1140> lmax f
|1141> s 1
|1142> 1      1.732000000   14.676000000 2
|1143> p 1
|1144> 1      1.115000000    5.175700000 2
|1145> d 1
|1146> 1      1.203000000   -1.816000000 2
|1147> f 1
|1148> 1      1.000000000    0.000000000 2
|1149> end
|1150> Mg>    2.00000000000   -2.10705287155   -8.44098705582   -2.14155206950
|1151> NewECP
|1152> N_core 0
|1153> lmax f
|1154> s 1
|1155> 1      1.732000000   14.676000000 2
|1156> p 1
|1157> 1      1.115000000    5.175700000 2
|1158> d 1
|1159> 1      1.203000000   -1.816000000 2
|1160> f 1
|1161> 1      1.000000000    0.000000000 2
|1162> end
|1163> Mg>    2.00000000000   -8.44098705582   -2.10705287155   -2.14155206950
|1164> NewECP
|1165> N_core 0
|1166> lmax f
|1167> s 1
|1168> 1      1.732000000   14.676000000 2
|1169> p 1
|1170> 1      1.115000000    5.175700000 2
|1171> d 1
|1172> 1      1.203000000   -1.816000000 2
|1173> f 1
|1174> 1      1.000000000    0.000000000 2
|1175> end
|1176> Mg>    2.00000000000   -6.33074029186    0.00000000000   -6.37814204923
|1177> NewECP
|1178> N_core 0
|1179> lmax f
|1180> s 1
|1181> 1      1.732000000   14.676000000 2
|1182> p 1
|1183> 1      1.115000000    5.175700000 2
|1184> d 1
|1185> 1      1.203000000   -1.816000000 2
|1186> f 1
|1187> 1      1.000000000    0.000000000 2
|1188> end
|1189> Mg>    2.00000000000    0.00000000000    6.33074029186   -6.37814204923
|1190> NewECP
|1191> N_core 0
|1192> lmax f
|1193> s 1
|1194> 1      1.732000000   14.676000000 2
|1195> p 1
|1196> 1      1.115000000    5.175700000 2
|1197> d 1
|1198> 1      1.203000000   -1.816000000 2
|1199> f 1
|1200> 1      1.000000000    0.000000000 2
|1201> end
|1202> Mg>    2.00000000000    6.33074029186    0.00000000000   -6.37814204923
|1203> NewECP
|1204> N_core 0
|1205> lmax f
|1206> s 1
|1207> 1      1.732000000   14.676000000 2
|1208> p 1
|1209> 1      1.115000000    5.175700000 2
|1210> d 1
|1211> 1      1.203000000   -1.816000000 2
|1212> f 1
|1213> 1      1.000000000    0.000000000 2
|1214> end
|1215> Mg>    2.00000000000    0.00000000000   -6.33074029186   -6.37814204923
|1216> NewECP
|1217> N_core 0
|1218> lmax f
|1219> s 1
|1220> 1      1.732000000   14.676000000 2
|1221> p 1
|1222> 1      1.115000000    5.175700000 2
|1223> d 1
|1224> 1      1.203000000   -1.816000000 2
|1225> f 1
|1226> 1      1.000000000    0.000000000 2
|1227> end
|1228> Mg>    2.00000000000   -8.44098705582    4.22049352791   -0.04269731856
|1229> NewECP
|1230> N_core 0
|1231> lmax f
|1232> s 1
|1233> 1      1.732000000   14.676000000 2
|1234> p 1
|1235> 1      1.115000000    5.175700000 2
|1236> d 1
|1237> 1      1.203000000   -1.816000000 2
|1238> f 1
|1239> 1      1.000000000    0.000000000 2
|1240> end
|1241> Mg>    2.00000000000   -4.22049352791    8.44098705582   -0.04269731856
|1242> NewECP
|1243> N_core 0
|1244> lmax f
|1245> s 1
|1246> 1      1.732000000   14.676000000 2
|1247> p 1
|1248> 1      1.115000000    5.175700000 2
|1249> d 1
|1250> 1      1.203000000   -1.816000000 2
|1251> f 1
|1252> 1      1.000000000    0.000000000 2
|1253> end
|1254> Mg>    2.00000000000    4.22049352791    8.44098705582   -0.04269731856
|1255> NewECP
|1256> N_core 0
|1257> lmax f
|1258> s 1
|1259> 1      1.732000000   14.676000000 2
|1260> p 1
|1261> 1      1.115000000    5.175700000 2
|1262> d 1
|1263> 1      1.203000000   -1.816000000 2
|1264> f 1
|1265> 1      1.000000000    0.000000000 2
|1266> end
|1267> Mg>    2.00000000000    8.44098705582    4.22049352791   -0.04269731856
|1268> NewECP
|1269> N_core 0
|1270> lmax f
|1271> s 1
|1272> 1      1.732000000   14.676000000 2
|1273> p 1
|1274> 1      1.115000000    5.175700000 2
|1275> d 1
|1276> 1      1.203000000   -1.816000000 2
|1277> f 1
|1278> 1      1.000000000    0.000000000 2
|1279> end
|1280> Mg>    2.00000000000    8.44098705582   -4.22049352791   -0.04269731856
|1281> NewECP
|1282> N_core 0
|1283> lmax f
|1284> s 1
|1285> 1      1.732000000   14.676000000 2
|1286> p 1
|1287> 1      1.115000000    5.175700000 2
|1288> d 1
|1289> 1      1.203000000   -1.816000000 2
|1290> f 1
|1291> 1      1.000000000    0.000000000 2
|1292> end
|1293> Mg>    2.00000000000    4.22049352791   -8.44098705582   -0.04269731856
|1294> NewECP
|1295> N_core 0
|1296> lmax f
|1297> s 1
|1298> 1      1.732000000   14.676000000 2
|1299> p 1
|1300> 1      1.115000000    5.175700000 2
|1301> d 1
|1302> 1      1.203000000   -1.816000000 2
|1303> f 1
|1304> 1      1.000000000    0.000000000 2
|1305> end
|1306> Mg>    2.00000000000   -4.22049352791   -8.44098705582   -0.04269731856
|1307> NewECP
|1308> N_core 0
|1309> lmax f
|1310> s 1
|1311> 1      1.732000000   14.676000000 2
|1312> p 1
|1313> 1      1.115000000    5.175700000 2
|1314> d 1
|1315> 1      1.203000000   -1.816000000 2
|1316> f 1
|1317> 1      1.000000000    0.000000000 2
|1318> end
|1319> Mg>    2.00000000000   -8.44098705582   -4.22049352791   -0.04269731856
|1320> NewECP
|1321> N_core 0
|1322> lmax f
|1323> s 1
|1324> 1      1.732000000   14.676000000 2
|1325> p 1
|1326> 1      1.115000000    5.175700000 2
|1327> d 1
|1328> 1      1.203000000   -1.816000000 2
|1329> f 1
|1330> 1      1.000000000    0.000000000 2
|1331> end
|1332> Mg>    2.00000000000   -8.44098705582    0.00000000000   -4.26789528527
|1333> NewECP
|1334> N_core 0
|1335> lmax f
|1336> s 1
|1337> 1      1.732000000   14.676000000 2
|1338> p 1
|1339> 1      1.115000000    5.175700000 2
|1340> d 1
|1341> 1      1.203000000   -1.816000000 2
|1342> f 1
|1343> 1      1.000000000    0.000000000 2
|1344> end
|1345> Mg>    2.00000000000    0.00000000000    8.44098705582   -4.26789528527
|1346> NewECP
|1347> N_core 0
|1348> lmax f
|1349> s 1
|1350> 1      1.732000000   14.676000000 2
|1351> p 1
|1352> 1      1.115000000    5.175700000 2
|1353> d 1
|1354> 1      1.203000000   -1.816000000 2
|1355> f 1
|1356> 1      1.000000000    0.000000000 2
|1357> end
|1358> Mg>    2.00000000000    8.44098705582    0.00000000000   -4.26789528527
|1359> NewECP
|1360> N_core 0
|1361> lmax f
|1362> s 1
|1363> 1      1.732000000   14.676000000 2
|1364> p 1
|1365> 1      1.115000000    5.175700000 2
|1366> d 1
|1367> 1      1.203000000   -1.816000000 2
|1368> f 1
|1369> 1      1.000000000    0.000000000 2
|1370> end
|1371> Mg>    2.00000000000    0.00000000000   -8.44098705582   -4.26789528527
|1372> NewECP
|1373> N_core 0
|1374> lmax f
|1375> s 1
|1376> 1      1.732000000   14.676000000 2
|1377> p 1
|1378> 1      1.115000000    5.175700000 2
|1379> d 1
|1380> 1      1.203000000   -1.816000000 2
|1381> f 1
|1382> 1      1.000000000    0.000000000 2
|1383> end
|1384> Mg>    2.00000000000  -10.55242967836    2.11144262254   -0.04367284424
|1385> NewECP
|1386> N_core 0
|1387> lmax f
|1388> s 1
|1389> 1      1.732000000   14.676000000 2
|1390> p 1
|1391> 1      1.115000000    5.175700000 2
|1392> d 1
|1393> 1      1.203000000   -1.816000000 2
|1394> f 1
|1395> 1      1.000000000    0.000000000 2
|1396> end
|1397> Mg>    2.00000000000   -2.11144262254   10.55242967836   -0.04367284424
|1398> NewECP
|1399> N_core 0
|1400> lmax f
|1401> s 1
|1402> 1      1.732000000   14.676000000 2
|1403> p 1
|1404> 1      1.115000000    5.175700000 2
|1405> d 1
|1406> 1      1.203000000   -1.816000000 2
|1407> f 1
|1408> 1      1.000000000    0.000000000 2
|1409> end
|1410> Mg>    2.00000000000    2.11144262254   10.55242967836   -0.04367284424
|1411> NewECP
|1412> N_core 0
|1413> lmax f
|1414> s 1
|1415> 1      1.732000000   14.676000000 2
|1416> p 1
|1417> 1      1.115000000    5.175700000 2
|1418> d 1
|1419> 1      1.203000000   -1.816000000 2
|1420> f 1
|1421> 1      1.000000000    0.000000000 2
|1422> end
|1423> Mg>    2.00000000000   10.55242967836    2.11144262254   -0.04367284424
|1424> NewECP
|1425> N_core 0
|1426> lmax f
|1427> s 1
|1428> 1      1.732000000   14.676000000 2
|1429> p 1
|1430> 1      1.115000000    5.175700000 2
|1431> d 1
|1432> 1      1.203000000   -1.816000000 2
|1433> f 1
|1434> 1      1.000000000    0.000000000 2
|1435> end
|1436> Mg>    2.00000000000   10.55242967836   -2.11144262254   -0.04367284424
|1437> NewECP
|1438> N_core 0
|1439> lmax f
|1440> s 1
|1441> 1      1.732000000   14.676000000 2
|1442> p 1
|1443> 1      1.115000000    5.175700000 2
|1444> d 1
|1445> 1      1.203000000   -1.816000000 2
|1446> f 1
|1447> 1      1.000000000    0.000000000 2
|1448> end
|1449> Mg>    2.00000000000    2.11144262254  -10.55242967836   -0.04367284424
|1450> NewECP
|1451> N_core 0
|1452> lmax f
|1453> s 1
|1454> 1      1.732000000   14.676000000 2
|1455> p 1
|1456> 1      1.115000000    5.175700000 2
|1457> d 1
|1458> 1      1.203000000   -1.816000000 2
|1459> f 1
|1460> 1      1.000000000    0.000000000 2
|1461> end
|1462> Mg>    2.00000000000   -2.11144262254  -10.55242967836   -0.04367284424
|1463> NewECP
|1464> N_core 0
|1465> lmax f
|1466> s 1
|1467> 1      1.732000000   14.676000000 2
|1468> p 1
|1469> 1      1.115000000    5.175700000 2
|1470> d 1
|1471> 1      1.203000000   -1.816000000 2
|1472> f 1
|1473> 1      1.000000000    0.000000000 2
|1474> end
|1475> Mg>    2.00000000000  -10.55242967836   -2.11144262254   -0.04367284424
|1476> NewECP
|1477> N_core 0
|1478> lmax f
|1479> s 1
|1480> 1      1.732000000   14.676000000 2
|1481> p 1
|1482> 1      1.115000000    5.175700000 2
|1483> d 1
|1484> 1      1.203000000   -1.816000000 2
|1485> f 1
|1486> 1      1.000000000    0.000000000 2
|1487> end
|1488> Mg>    2.00000000000  -10.54803992736    0.00000000000   -2.14155206950
|1489> NewECP
|1490> N_core 0
|1491> lmax f
|1492> s 1
|1493> 1      1.732000000   14.676000000 2
|1494> p 1
|1495> 1      1.115000000    5.175700000 2
|1496> d 1
|1497> 1      1.203000000   -1.816000000 2
|1498> f 1
|1499> 1      1.000000000    0.000000000 2
|1500> end
|1501> Mg>    2.00000000000    0.00000000000   10.54803992736   -2.14155206950
|1502> NewECP
|1503> N_core 0
|1504> lmax f
|1505> s 1
|1506> 1      1.732000000   14.676000000 2
|1507> p 1
|1508> 1      1.115000000    5.175700000 2
|1509> d 1
|1510> 1      1.203000000   -1.816000000 2
|1511> f 1
|1512> 1      1.000000000    0.000000000 2
|1513> end
|1514> Mg>    2.00000000000   10.54803992736    0.00000000000   -2.14155206950
|1515> NewECP
|1516> N_core 0
|1517> lmax f
|1518> s 1
|1519> 1      1.732000000   14.676000000 2
|1520> p 1
|1521> 1      1.115000000    5.175700000 2
|1522> d 1
|1523> 1      1.203000000   -1.816000000 2
|1524> f 1
|1525> 1      1.000000000    0.000000000 2
|1526> end
|1527> Mg>    2.00000000000    0.00000000000  -10.54803992736   -2.14155206950
|1528> NewECP
|1529> N_core 0
|1530> lmax f
|1531> s 1
|1532> 1      1.732000000   14.676000000 2
|1533> p 1
|1534> 1      1.115000000    5.175700000 2
|1535> d 1
|1536> 1      1.203000000   -1.816000000 2
|1537> f 1
|1538> 1      1.000000000    0.000000000 2
|1539> end
|1540> end
|1541> end
|1542>  
|1543> 
|1544>                          ****END OF INPUT****
================================================================================

                       ****************************
                       * Single Point Calculation *
                       ****************************

---------------------------------
CARTESIAN COORDINATES (ANGSTROEM)
---------------------------------
  C      0.000000    0.000000    2.441022
  O      0.000000    0.000000    3.587842
  Mg     0.000000    0.000000    0.000000
  O     -2.120184    0.000000    0.005672
  O      0.000000    2.120184    0.005672
  O      2.120184    0.000000    0.005672
  O      0.000000   -2.120184    0.005672
  O      0.000000    0.000000   -2.141300
  Mg    -2.111443    2.111443   -0.043673
  Mg     2.111443    2.111443   -0.043673
  Mg     2.111443   -2.111443   -0.043673
  Mg    -2.111443   -2.111443   -0.043673
  O     -2.110705    2.110705   -2.149240
  O      2.110705    2.110705   -2.149240
  O      2.110705   -2.110705   -2.149240
  O     -2.110705   -2.110705   -2.149240
  Mg    -4.220494    0.000000   -0.042697
  Mg     0.000000    4.220494   -0.042697
  Mg     4.220494    0.000000   -0.042697
  Mg     0.000000   -4.220494   -0.042697
  O     -4.220494    2.112091    0.007728
  O     -2.112091    4.220494    0.007728
  O      2.112091    4.220494    0.007728
  O      4.220494    2.112091    0.007728
  O      4.220494   -2.112091    0.007728
  O      2.112091   -4.220494    0.007728
  O     -2.112091   -4.220494    0.007728
  O     -4.220494   -2.112091    0.007728
  O     -4.220494    0.000000   -2.151297
  O      0.000000    4.220494   -2.151297
  O      4.220494    0.000000   -2.151297
  O      0.000000   -4.220494   -2.151297
  O     -6.320803    0.000000    0.005672
  O      0.000000    6.320803    0.005672
  O      6.320803    0.000000    0.005672
  O      0.000000   -6.320803    0.005672
  Mg>   -2.107053    0.000000   -2.141552
  Mg>    0.000000    2.107053   -2.141552
  Mg>    2.107053    0.000000   -2.141552
  Mg>    0.000000   -2.107053   -2.141552
  Mg>    0.000000    0.000000   -4.267895
  Mg>   -4.220494    2.109734   -2.144459
  Mg>   -2.109734    4.220494   -2.144459
  Mg>    2.109734    4.220494   -2.144459
  Mg>    4.220494    2.109734   -2.144459
  Mg>    4.220494   -2.109734   -2.144459
  Mg>    2.109734   -4.220494   -2.144459
  Mg>   -2.109734   -4.220494   -2.144459
  Mg>   -4.220494   -2.109734   -2.144459
  Mg>   -2.110247    2.110247   -4.267895
  Mg>    2.110247    2.110247   -4.267895
  Mg>    2.110247   -2.110247   -4.267895
  Mg>   -2.110247   -2.110247   -4.267895
  Mg>   -4.220494    4.220494   -0.039924
  Mg>    4.220494    4.220494   -0.039924
  Mg>    4.220494   -4.220494   -0.039924
  Mg>   -4.220494   -4.220494   -0.039924
  Mg>   -4.220494    0.000000   -4.267895
  Mg>    0.000000    4.220494   -4.267895
  Mg>    4.220494    0.000000   -4.267895
  Mg>    0.000000   -4.220494   -4.267895
  Mg>   -6.329544    2.111443   -0.043673
  Mg>   -2.111443    6.329544   -0.043673
  Mg>    2.111443    6.329544   -0.043673
  Mg>    6.329544    2.111443   -0.043673
  Mg>    6.329544   -2.111443   -0.043673
  Mg>    2.111443   -6.329544   -0.043673
  Mg>   -2.111443   -6.329544   -0.043673
  Mg>   -6.329544   -2.111443   -0.043673
  Mg>   -6.333934    0.000000   -2.141552
  Mg>    0.000000    6.333934   -2.141552
  Mg>    6.333934    0.000000   -2.141552
  Mg>    0.000000   -6.333934   -2.141552
  Mg>   -2.110247    0.000000   -6.378142
  Mg>    0.000000    2.110247   -6.378142
  Mg>    2.110247    0.000000   -6.378142
  Mg>    0.000000   -2.110247   -6.378142
  Mg>   -4.220494    4.220494   -4.267895
  Mg>    4.220494    4.220494   -4.267895
  Mg>    4.220494   -4.220494   -4.267895
  Mg>   -4.220494   -4.220494   -4.267895
  Mg>   -6.331253    4.220494   -2.144459
  Mg>   -4.220494    6.331253   -2.144459
  Mg>    4.220494    6.331253   -2.144459
  Mg>    6.331253    4.220494   -2.144459
  Mg>    6.331253   -4.220494   -2.144459
  Mg>    4.220494   -6.331253   -2.144459
  Mg>   -4.220494   -6.331253   -2.144459
  Mg>   -6.331253   -4.220494   -2.144459
  Mg>   -6.330740    2.110247   -4.267895
  Mg>   -2.110247    6.330740   -4.267895
  Mg>    2.110247    6.330740   -4.267895
  Mg>    6.330740    2.110247   -4.267895
  Mg>    6.330740   -2.110247   -4.267895
  Mg>    2.110247   -6.330740   -4.267895
  Mg>   -2.110247   -6.330740   -4.267895
  Mg>   -6.330740   -2.110247   -4.267895
  Mg>   -4.220494    2.110247   -6.378142
  Mg>   -2.110247    4.220494   -6.378142
  Mg>    2.110247    4.220494   -6.378142
  Mg>    4.220494    2.110247   -6.378142
  Mg>    4.220494   -2.110247   -6.378142
  Mg>    2.110247   -4.220494   -6.378142
  Mg>   -2.110247   -4.220494   -6.378142
  Mg>   -4.220494   -2.110247   -6.378142
  Mg>   -8.440987    0.000000    0.000000
  Mg>    0.000000    8.440987    0.000000
  Mg>    8.440987    0.000000    0.000000
  Mg>    0.000000   -8.440987    0.000000
  Mg>   -6.329544    6.329544   -0.043673
  Mg>    6.329544    6.329544   -0.043673
  Mg>    6.329544   -6.329544   -0.043673
  Mg>   -6.329544   -6.329544   -0.043673
  Mg>   -8.440987    2.107053   -2.141552
  Mg>   -2.107053    8.440987   -2.141552
  Mg>    2.107053    8.440987   -2.141552
  Mg>    8.440987    2.107053   -2.141552
  Mg>    8.440987   -2.107053   -2.141552
  Mg>    2.107053   -8.440987   -2.141552
  Mg>   -2.107053   -8.440987   -2.141552
  Mg>   -8.440987   -2.107053   -2.141552
  Mg>   -6.330740    0.000000   -6.378142
  Mg>    0.000000    6.330740   -6.378142
  Mg>    6.330740    0.000000   -6.378142
  Mg>    0.000000   -6.330740   -6.378142
  Mg>   -8.440987    4.220494   -0.042697
  Mg>   -4.220494    8.440987   -0.042697
  Mg>    4.220494    8.440987   -0.042697
  Mg>    8.440987    4.220494   -0.042697
  Mg>    8.440987   -4.220494   -0.042697
  Mg>    4.220494   -8.440987   -0.042697
  Mg>   -4.220494   -8.440987   -0.042697
  Mg>   -8.440987   -4.220494   -0.042697
  Mg>   -8.440987    0.000000   -4.267895
  Mg>    0.000000    8.440987   -4.267895
  Mg>    8.440987    0.000000   -4.267895
  Mg>    0.000000   -8.440987   -4.267895
  Mg>  -10.552430    2.111443   -0.043673
  Mg>   -2.111443   10.552430   -0.043673
  Mg>    2.111443   10.552430   -0.043673
  Mg>   10.552430    2.111443   -0.043673
  Mg>   10.552430   -2.111443   -0.043673
  Mg>    2.111443  -10.552430   -0.043673
  Mg>   -2.111443  -10.552430   -0.043673
  Mg>  -10.552430   -2.111443   -0.043673
  Mg>  -10.548040    0.000000   -2.141552
  Mg>    0.000000   10.548040   -2.141552
  Mg>   10.548040    0.000000   -2.141552
  Mg>    0.000000  -10.548040   -2.141552

----------------------------
CARTESIAN COORDINATES (A.U.)
----------------------------
  NO LB      ZA    FRAG     MASS         X           Y           Z
   0 C     0.0000    0     0.000    0.000000    0.000000    4.612864
   1 O     0.0000    0     0.000    0.000000    0.000000    6.780039
   2 Mg   12.0000    0    24.305    0.000000    0.000000    0.000000
   3 O     8.0000    0    15.999   -4.006568    0.000000    0.010719
   4 O     8.0000    0    15.999    0.000000    4.006568    0.010719
   5 O     8.0000    0    15.999    4.006568    0.000000    0.010719
   6 O     8.0000    0    15.999    0.000000   -4.006568    0.010719
   7 O     8.0000    0    15.999    0.000000    0.000000   -4.046470
   8 Mg   12.0000    0    24.305   -3.990048    3.990048   -0.082530
   9 Mg   12.0000    0    24.305    3.990048    3.990048   -0.082530
  10 Mg   12.0000    0    24.305    3.990048   -3.990048   -0.082530
  11 Mg   12.0000    0    24.305   -3.990048   -3.990048   -0.082530
  12 O     8.0000    0    15.999   -3.988653    3.988653   -4.061475
  13 O     8.0000    0    15.999    3.988653    3.988653   -4.061475
  14 O     8.0000    0    15.999    3.988653   -3.988653   -4.061475
  15 O     8.0000    0    15.999   -3.988653   -3.988653   -4.061475
  16 Mg   12.0000    0    24.305   -7.975577    0.000000   -0.080686
  17 Mg   12.0000    0    24.305    0.000000    7.975577   -0.080686
  18 Mg   12.0000    0    24.305    7.975577    0.000000   -0.080686
  19 Mg   12.0000    0    24.305    0.000000   -7.975577   -0.080686
  20 O     8.0000    0    15.999   -7.975577    3.991274    0.014604
  21 O     8.0000    0    15.999   -3.991274    7.975577    0.014604
  22 O     8.0000    0    15.999    3.991274    7.975577    0.014604
  23 O     8.0000    0    15.999    7.975577    3.991274    0.014604
  24 O     8.0000    0    15.999    7.975577   -3.991274    0.014604
  25 O     8.0000    0    15.999    3.991274   -7.975577    0.014604
  26 O     8.0000    0    15.999   -3.991274   -7.975577    0.014604
  27 O     8.0000    0    15.999   -7.975577   -3.991274    0.014604
  28 O     8.0000    0    15.999   -7.975577    0.000000   -4.065363
  29 O     8.0000    0    15.999    0.000000    7.975577   -4.065363
  30 O     8.0000    0    15.999    7.975577    0.000000   -4.065363
  31 O     8.0000    0    15.999    0.000000   -7.975577   -4.065363
  32 O     8.0000    0    15.999  -11.944586    0.000000    0.010719
  33 O     8.0000    0    15.999    0.000000   11.944586    0.010719
  34 O     8.0000    0    15.999   11.944586    0.000000    0.010719
  35 O     8.0000    0    15.999    0.000000  -11.944586    0.010719
  36 Mg>   2.0000    0     0.000   -3.981753    0.000000   -4.046947
  37 Mg>   2.0000    0     0.000    0.000000    3.981753   -4.046947
  38 Mg>   2.0000    0     0.000    3.981753    0.000000   -4.046947
  39 Mg>   2.0000    0     0.000    0.000000   -3.981753   -4.046947
  40 Mg>   2.0000    0     0.000    0.000000    0.000000   -8.065153
  41 Mg>   2.0000    0     0.000   -7.975577    3.986820   -4.052440
  42 Mg>   2.0000    0     0.000   -3.986820    7.975577   -4.052440
  43 Mg>   2.0000    0     0.000    3.986820    7.975577   -4.052440
  44 Mg>   2.0000    0     0.000    7.975577    3.986820   -4.052440
  45 Mg>   2.0000    0     0.000    7.975577   -3.986820   -4.052440
  46 Mg>   2.0000    0     0.000    3.986820   -7.975577   -4.052440
  47 Mg>   2.0000    0     0.000   -3.986820   -7.975577   -4.052440
  48 Mg>   2.0000    0     0.000   -7.975577   -3.986820   -4.052440
  49 Mg>   2.0000    0     0.000   -3.987788    3.987788   -8.065153
  50 Mg>   2.0000    0     0.000    3.987788    3.987788   -8.065153
  51 Mg>   2.0000    0     0.000    3.987788   -3.987788   -8.065153
  52 Mg>   2.0000    0     0.000   -3.987788   -3.987788   -8.065153
  53 Mg>   2.0000    0     0.000   -7.975577    7.975577   -0.075445
  54 Mg>   2.0000    0     0.000    7.975577    7.975577   -0.075445
  55 Mg>   2.0000    0     0.000    7.975577   -7.975577   -0.075445
  56 Mg>   2.0000    0     0.000   -7.975577   -7.975577   -0.075445
  57 Mg>   2.0000    0     0.000   -7.975577    0.000000   -8.065153
  58 Mg>   2.0000    0     0.000    0.000000    7.975577   -8.065153
  59 Mg>   2.0000    0     0.000    7.975577    0.000000   -8.065153
  60 Mg>   2.0000    0     0.000    0.000000   -7.975577   -8.065153
  61 Mg>   2.0000    0     0.000  -11.961106    3.990048   -0.082530
  62 Mg>   2.0000    0     0.000   -3.990048   11.961106   -0.082530
  63 Mg>   2.0000    0     0.000    3.990048   11.961106   -0.082530
  64 Mg>   2.0000    0     0.000   11.961106    3.990048   -0.082530
  65 Mg>   2.0000    0     0.000   11.961106   -3.990048   -0.082530
  66 Mg>   2.0000    0     0.000    3.990048  -11.961106   -0.082530
  67 Mg>   2.0000    0     0.000   -3.990048  -11.961106   -0.082530
  68 Mg>   2.0000    0     0.000  -11.961106   -3.990048   -0.082530
  69 Mg>   2.0000    0     0.000  -11.969401    0.000000   -4.046947
  70 Mg>   2.0000    0     0.000    0.000000   11.969401   -4.046947
  71 Mg>   2.0000    0     0.000   11.969401    0.000000   -4.046947
  72 Mg>   2.0000    0     0.000    0.000000  -11.969401   -4.046947
  73 Mg>   2.0000    0     0.000   -3.987788    0.000000  -12.052942
  74 Mg>   2.0000    0     0.000    0.000000    3.987788  -12.052942
  75 Mg>   2.0000    0     0.000    3.987788    0.000000  -12.052942
  76 Mg>   2.0000    0     0.000    0.000000   -3.987788  -12.052942
  77 Mg>   2.0000    0     0.000   -7.975577    7.975577   -8.065153
  78 Mg>   2.0000    0     0.000    7.975577    7.975577   -8.065153
  79 Mg>   2.0000    0     0.000    7.975577   -7.975577   -8.065153
  80 Mg>   2.0000    0     0.000   -7.975577   -7.975577   -8.065153
  81 Mg>   2.0000    0     0.000  -11.964334    7.975577   -4.052440
  82 Mg>   2.0000    0     0.000   -7.975577   11.964334   -4.052440
  83 Mg>   2.0000    0     0.000    7.975577   11.964334   -4.052440
  84 Mg>   2.0000    0     0.000   11.964334    7.975577   -4.052440
  85 Mg>   2.0000    0     0.000   11.964334   -7.975577   -4.052440
  86 Mg>   2.0000    0     0.000    7.975577  -11.964334   -4.052440
  87 Mg>   2.0000    0     0.000   -7.975577  -11.964334   -4.052440
  88 Mg>   2.0000    0     0.000  -11.964334   -7.975577   -4.052440
  89 Mg>   2.0000    0     0.000  -11.963365    3.987788   -8.065153
  90 Mg>   2.0000    0     0.000   -3.987788   11.963365   -8.065153
  91 Mg>   2.0000    0     0.000    3.987788   11.963365   -8.065153
  92 Mg>   2.0000    0     0.000   11.963365    3.987788   -8.065153
  93 Mg>   2.0000    0     0.000   11.963365   -3.987788   -8.065153
  94 Mg>   2.0000    0     0.000    3.987788  -11.963365   -8.065153
  95 Mg>   2.0000    0     0.000   -3.987788  -11.963365   -8.065153
  96 Mg>   2.0000    0     0.000  -11.963365   -3.987788   -8.065153
  97 Mg>   2.0000    0     0.000   -7.975577    3.987788  -12.052942
  98 Mg>   2.0000    0     0.000   -3.987788    7.975577  -12.052942
  99 Mg>   2.0000    0     0.000    3.987788    7.975577  -12.052942
 100 Mg>   2.0000    0     0.000    7.975577    3.987788  -12.052942
 101 Mg>   2.0000    0     0.000    7.975577   -3.987788  -12.052942
 102 Mg>   2.0000    0     0.000    3.987788   -7.975577  -12.052942
 103 Mg>   2.0000    0     0.000   -3.987788   -7.975577  -12.052942
 104 Mg>   2.0000    0     0.000   -7.975577   -3.987788  -12.052942
 105 Mg>   2.0000    0     0.000  -15.951154    0.000000    0.000000
 106 Mg>   2.0000    0     0.000    0.000000   15.951154    0.000000
 107 Mg>   2.0000    0     0.000   15.951154    0.000000    0.000000
 108 Mg>   2.0000    0     0.000    0.000000  -15.951154    0.000000
 109 Mg>   2.0000    0     0.000  -11.961106   11.961106   -0.082530
 110 Mg>   2.0000    0     0.000   11.961106   11.961106   -0.082530
 111 Mg>   2.0000    0     0.000   11.961106  -11.961106   -0.082530
 112 Mg>   2.0000    0     0.000  -11.961106  -11.961106   -0.082530
 113 Mg>   2.0000    0     0.000  -15.951154    3.981753   -4.046947
 114 Mg>   2.0000    0     0.000   -3.981753   15.951154   -4.046947
 115 Mg>   2.0000    0     0.000    3.981753   15.951154   -4.046947
 116 Mg>   2.0000    0     0.000   15.951154    3.981753   -4.046947
 117 Mg>   2.0000    0     0.000   15.951154   -3.981753   -4.046947
 118 Mg>   2.0000    0     0.000    3.981753  -15.951154   -4.046947
 119 Mg>   2.0000    0     0.000   -3.981753  -15.951154   -4.046947
 120 Mg>   2.0000    0     0.000  -15.951154   -3.981753   -4.046947
 121 Mg>   2.0000    0     0.000  -11.963365    0.000000  -12.052942
 122 Mg>   2.0000    0     0.000    0.000000   11.963365  -12.052942
 123 Mg>   2.0000    0     0.000   11.963365    0.000000  -12.052942
 124 Mg>   2.0000    0     0.000    0.000000  -11.963365  -12.052942
 125 Mg>   2.0000    0     0.000  -15.951154    7.975577   -0.080686
 126 Mg>   2.0000    0     0.000   -7.975577   15.951154   -0.080686
 127 Mg>   2.0000    0     0.000    7.975577   15.951154   -0.080686
 128 Mg>   2.0000    0     0.000   15.951154    7.975577   -0.080686
 129 Mg>   2.0000    0     0.000   15.951154   -7.975577   -0.080686
 130 Mg>   2.0000    0     0.000    7.975577  -15.951154   -0.080686
 131 Mg>   2.0000    0     0.000   -7.975577  -15.951154   -0.080686
 132 Mg>   2.0000    0     0.000  -15.951154   -7.975577   -0.080686
 133 Mg>   2.0000    0     0.000  -15.951154    0.000000   -8.065153
 134 Mg>   2.0000    0     0.000    0.000000   15.951154   -8.065153
 135 Mg>   2.0000    0     0.000   15.951154    0.000000   -8.065153
 136 Mg>   2.0000    0     0.000    0.000000  -15.951154   -8.065153
 137 Mg>   2.0000    0     0.000  -19.941202    3.990048   -0.082530
 138 Mg>   2.0000    0     0.000   -3.990048   19.941202   -0.082530
 139 Mg>   2.0000    0     0.000    3.990048   19.941202   -0.082530
 140 Mg>   2.0000    0     0.000   19.941202    3.990048   -0.082530
 141 Mg>   2.0000    0     0.000   19.941202   -3.990048   -0.082530
 142 Mg>   2.0000    0     0.000    3.990048  -19.941202   -0.082530
 143 Mg>   2.0000    0     0.000   -3.990048  -19.941202   -0.082530
 144 Mg>   2.0000    0     0.000  -19.941202   -3.990048   -0.082530
 145 Mg>   2.0000    0     0.000  -19.932907    0.000000   -4.046947
 146 Mg>   2.0000    0     0.000    0.000000   19.932907   -4.046947
 147 Mg>   2.0000    0     0.000   19.932907    0.000000   -4.046947
 148 Mg>   2.0000    0     0.000    0.000000  -19.932907   -4.046947
> coreless ECP center with (optional) point charge

--------------------------------
INTERNAL COORDINATES (ANGSTROEM)
--------------------------------
 C      0   0   0     0.000000000000     0.00000000     0.00000000
 O      1   0   0     1.146819814660     0.00000000     0.00000000
 Mg     1   2   0     2.441022358370   179.99999915     0.00000000
 O      3   1   2     2.120191843798    89.84671800     0.00000000
 O      3   1   2     2.120191843798    89.84671800     0.00000000
 O      3   1   2     2.120191843798    89.84671800     0.00000000
 O      3   1   2     2.120191843798    89.84671800     0.00000000
 O      3   1   2     2.141299661230   179.99999852     0.00000000
 Mg     4   3   1     2.112037236193    89.75927407    91.33813376
 Mg     5   3   1     2.112037236193    89.75927407    91.33813376
 Mg     6   3   1     2.112037236193    89.75927407    91.33813376
 Mg     4   3   1     2.112037236193    89.75927407   268.66186624
 O      9   4   3     2.105567311124    91.31875951    89.83212722
 O     10   5   3     2.105567311124    91.31875951    89.83212722
 O     11   6   3     2.105567311124    91.31875951    89.83212722
 O     12   4   3     2.105567311124    91.31875951   270.16787278
 Mg     4   3   1     2.100866163030   178.52744884   180.00000000
 Mg     5   3   1     2.100866163030   178.52744884   180.00000000
 Mg     6   3   1     2.100866163030   178.52744884   180.00000000
 Mg     7   3   1     2.100866163030   178.52744884   180.00000000
 O      9   4   3     2.109677271876    89.74792452   181.24291387
 O      9   4   3     2.109677271876   177.25328254   264.52840758
 O     10   5   3     2.109677271876    89.74792452   181.24291387
 O     10   5   3     2.109677271876   177.25328254   264.52840758
 O     11   6   3     2.109677271876    89.74792452   181.24291387
 O     11   6   3     2.109677271876   177.25328254   264.52840758
 O     12   4   3     2.109677271876   177.25328254    95.47159242
 O     12   4   3     2.109677271876    89.74792452   178.75708613
 O     17   4   9     2.108599876340    91.31926915    88.65612348
 O     18   5   9     2.108599876340    91.31926915   271.34387652
 O     19   6  10     2.108599876340    91.31926915   271.34387652
 O     20   7  11     2.108599876340    91.31926915   271.34387652
 O     17   4   9     2.100866163030   177.36146170   268.65612348
 O     18   5   9     2.100866163030   177.36146170    91.34387652
 O     19   6  10     2.100866163030   177.36146170    91.34387652
 O     20   7  11     2.100866163030   177.36146170    91.34387652
 Mg>    8   3   4     2.107052886668    90.00686358     0.00000000
 Mg>    8   3   4     2.107052886668    90.00686358    90.00000000
 Mg>    8   3   4     2.107052886668    90.00686358   180.00000000
 Mg>    8   3   4     2.107052886668    90.00686358   270.00000000
 Mg>    8   3   4     2.126595624040   180.00000000     0.00000000
 Mg>   29  17   4     2.109745206923    89.81429353   270.00000000
 Mg>   30  18   5     2.109745206923    89.81429353    90.00000000
 Mg>   30  18   5     2.109745206923    89.81429353   270.00000000
 Mg>   31  19   6     2.109745206923    89.81429353    90.00000000
 Mg>   31  19   6     2.109745206923    89.81429353   270.00000000
 Mg>   32  20   7     2.109745206923    89.81429353    90.00000000
 Mg>   32  20   7     2.109745206923    89.81429353   270.00000000
 Mg>   29  17   4     2.109745206923    89.81429353    90.00000000
 Mg>   13   9   4     2.118655487550   179.98910219   134.76325753
 Mg>   14  10   5     2.118655487550   179.98910219   134.76325753
 Mg>   15  11   6     2.118655487550   179.98910219   134.76325753
 Mg>   16  12   4     2.118655487550   179.98910219   225.23674247
 Mg>   21   9   4     2.108940547344    89.98607312   179.96173264
 Mg>   23  10   5     2.108940547344    89.98607312   179.96173264
 Mg>   25  11   6     2.108940547344    89.98607312   179.96173264
 Mg>   27  12  16     2.108940547344    89.98607312   271.27467433
 Mg>   29  17   4     2.116598090370   180.00000000     0.00000000
 Mg>   30  18   5     2.116598090370   180.00000000     0.00000000
 Mg>   31  19   6     2.116598090370   180.00000000     0.00000000
 Mg>   32  20   7     2.116598090370   180.00000000     0.00000000
 Mg>   21   9   4     2.109677271876   177.20755503   269.39032908
[...]
B(  0-C , 19-Mg) :   0.1364 B(  1-O ,  2-Mg) :  -0.1174 B(  2-Mg,  3-O ) :   6.2574 
B(  2-Mg,  4-O ) :   6.3831 B(  2-Mg,  5-O ) :   6.2545 B(  2-Mg,  6-O ) :   6.2781 
B(  2-Mg,  7-O ) : -11.7355 B(  2-Mg,  8-Mg) :  -5.6201 B(  2-Mg,  9-Mg) :  -5.6437 
B(  2-Mg, 10-Mg) :  -5.5333 B(  2-Mg, 11-Mg) :  -5.5897 B(  2-Mg, 12-O ) :  -3.0969 
B(  2-Mg, 13-O ) :  -3.0913 B(  2-Mg, 14-O ) :  -3.0938 B(  2-Mg, 15-O ) :  -3.0982 
B(  2-Mg, 16-Mg) :  -3.3357 B(  2-Mg, 17-Mg) :  -3.3863 B(  2-Mg, 18-Mg) :  -3.3338 
B(  2-Mg, 19-Mg) :  -3.3335 B(  2-Mg, 20-O ) :  -0.1537 B(  2-Mg, 21-O ) :  -0.1594 
B(  2-Mg, 22-O ) :  -0.1761 B(  2-Mg, 23-O ) :  -0.1722 B(  2-Mg, 24-O ) :  -0.1616 
B(  2-Mg, 25-O ) :  -0.1586 B(  2-Mg, 26-O ) :  -0.1704 B(  2-Mg, 27-O ) :  -0.1699 
B(  2-Mg, 28-O ) :  -0.6472 B(  2-Mg, 29-O ) :  -0.6629 B(  2-Mg, 30-O ) :  -0.6519 
B(  2-Mg, 31-O ) :  -0.6666 B(  2-Mg, 33-O ) :   0.1206 B(  2-Mg, 35-O ) :   0.1130 
B(  3-O ,  4-O ) :   2.0926 B(  3-O ,  5-O ) :   0.9022 B(  3-O ,  6-O ) :   2.0428 
B(  3-O ,  7-O ) :  -1.9587 B(  3-O ,  8-Mg) :  -2.9421 B(  3-O ,  9-Mg) :  -0.5099 
B(  3-O , 10-Mg) :  -0.4278 B(  3-O , 11-Mg) :  -2.9570 B(  3-O , 12-O ) :  -2.5014 
B(  3-O , 13-O ) :  -0.1172 B(  3-O , 14-O ) :  -0.1122 B(  3-O , 15-O ) :  -2.4988 
B(  3-O , 16-Mg) :  -4.8476 B(  3-O , 17-Mg) :  -0.5482 B(  3-O , 19-Mg) :  -0.5761 
B(  3-O , 20-O ) :  -0.6674 B(  3-O , 21-O ) :  -0.2628 B(  3-O , 26-O ) :  -0.2437 
B(  3-O , 27-O ) :  -0.6738 B(  3-O , 28-O ) :  -3.1854 B(  3-O , 29-O ) :  -0.2507 
B(  3-O , 31-O ) :  -0.2445 B(  3-O , 32-O ) :  -0.4339 B(  4-O ,  5-O ) :   2.0639 
B(  4-O ,  6-O ) :   0.8504 B(  4-O ,  7-O ) :  -1.9849 B(  4-O ,  8-Mg) :  -2.9990 
B(  4-O ,  9-Mg) :  -2.9626 B(  4-O , 10-Mg) :  -0.4467 B(  4-O , 11-Mg) :  -0.5064 
B(  4-O , 12-O ) :  -2.5016 B(  4-O , 13-O ) :  -2.4956 B(  4-O , 14-O ) :  -0.1140 
B(  4-O , 15-O ) :  -0.1109 B(  4-O , 16-Mg) :  -0.5356 B(  4-O , 17-Mg) :  -4.7788 
B(  4-O , 18-Mg) :  -0.5642 B(  4-O , 20-O ) :  -0.2638 B(  4-O , 21-O ) :  -0.6700 
B(  4-O , 22-O ) :  -0.6684 B(  4-O , 23-O ) :  -0.2642 B(  4-O , 28-O ) :  -0.2477 
B(  4-O , 29-O ) :  -3.1621 B(  4-O , 30-O ) :  -0.2480 B(  4-O , 33-O ) :  -0.4197 
B(  5-O ,  6-O ) :   2.0463 B(  5-O ,  7-O ) :  -1.9555 B(  5-O ,  8-Mg) :  -0.5087 
B(  5-O ,  9-Mg) :  -2.9588 B(  5-O , 10-Mg) :  -2.9979 B(  5-O , 11-Mg) :  -0.4365 
B(  5-O , 12-O ) :  -0.1123 B(  5-O , 13-O ) :  -2.5010 B(  5-O , 14-O ) :  -2.4953 
B(  5-O , 15-O ) :  -0.1106 B(  5-O , 17-Mg) :  -0.5463 B(  5-O , 18-Mg) :  -4.8419 
B(  5-O , 19-Mg) :  -0.5359 B(  5-O , 22-O ) :  -0.2627 B(  5-O , 23-O ) :  -0.6533 
B(  5-O , 24-O ) :  -0.6714 B(  5-O , 25-O ) :  -0.2552 B(  5-O , 29-O ) :  -0.2442 
B(  5-O , 30-O ) :  -3.1546 B(  5-O , 31-O ) :  -0.2481 B(  5-O , 34-O ) :  -0.4255 
B(  6-O ,  7-O ) :  -1.9561 B(  6-O ,  8-Mg) :  -0.4774 B(  6-O ,  9-Mg) :  -0.4556 
B(  6-O , 10-Mg) :  -2.9553 B(  6-O , 11-Mg) :  -2.9548 B(  6-O , 12-O ) :  -0.1130 
B(  6-O , 13-O ) :  -0.1134 B(  6-O , 14-O ) :  -2.5052 B(  6-O , 15-O ) :  -2.5051 
B(  6-O , 16-Mg) :  -0.5246 B(  6-O , 18-Mg) :  -0.5182 B(  6-O , 19-Mg) :  -4.8001 
B(  6-O , 24-O ) :  -0.2695 B(  6-O , 25-O ) :  -0.6738 B(  6-O , 26-O ) :  -0.6530 
B(  6-O , 27-O ) :  -0.2544 B(  6-O , 28-O ) :  -0.2400 B(  6-O , 30-O ) :  -0.2415 
B(  6-O , 31-O ) :  -3.1405 B(  6-O , 35-O ) :  -0.4315 B(  7-O ,  8-Mg) :   2.0520 
B(  7-O ,  9-Mg) :   2.0553 B(  7-O , 10-Mg) :   2.0271 B(  7-O , 11-Mg) :   2.0500 
B(  7-O , 12-O ) :   0.6211 B(  7-O , 13-O ) :   0.6247 B(  7-O , 14-O ) :   0.6236 
B(  7-O , 15-O ) :   0.6206 B(  7-O , 16-Mg) :   0.8673 B(  7-O , 17-Mg) :   0.8827 
B(  7-O , 18-Mg) :   0.8692 B(  7-O , 19-Mg) :   0.8764 B(  7-O , 28-O ) :   0.1369 
B(  7-O , 29-O ) :   0.1402 B(  7-O , 30-O ) :   0.1391 B(  7-O , 31-O ) :   0.1395 
B(  8-Mg,  9-Mg) :   0.7810 B(  8-Mg, 11-Mg) :   0.7220 B(  8-Mg, 12-O ) :   0.5544 
B(  8-Mg, 13-O ) :   0.6863 B(  8-Mg, 15-O ) :   0.6853 B(  8-Mg, 16-Mg) :   1.9088 
B(  8-Mg, 17-Mg) :   1.9412 B(  8-Mg, 18-Mg) :   0.1311 B(  8-Mg, 19-Mg) :   0.1473 
B(  8-Mg, 20-O ) :  -0.9311 B(  8-Mg, 21-O ) :  -0.9169 B(  8-Mg, 28-O ) :   0.6521 
B(  8-Mg, 29-O ) :   0.6590 B(  9-Mg, 10-Mg) :   0.7225 B(  9-Mg, 12-O ) :   0.6919 
B(  9-Mg, 13-O ) :   0.5734 B(  9-Mg, 14-O ) :   0.6791 B(  9-Mg, 16-Mg) :   0.1210 
B(  9-Mg, 17-Mg) :   1.9205 B(  9-Mg, 18-Mg) :   1.9284 B(  9-Mg, 19-Mg) :   0.1347 
B(  9-Mg, 22-O ) :  -0.9066 B(  9-Mg, 23-O ) :  -0.9331 B(  9-Mg, 29-O ) :   0.6656 
B(  9-Mg, 30-O ) :   0.6513 B( 10-Mg, 11-Mg) :   0.7174 B( 10-Mg, 13-O ) :   0.6805 
B( 10-Mg, 14-O ) :   0.5683 B( 10-Mg, 15-O ) :   0.6820 B( 10-Mg, 16-Mg) :   0.1032 
B( 10-Mg, 17-Mg) :   0.1294 B( 10-Mg, 18-Mg) :   1.9614 B( 10-Mg, 19-Mg) :   1.9211 
B( 10-Mg, 24-O ) :  -0.9312 B( 10-Mg, 25-O ) :  -0.9405 B( 10-Mg, 30-O ) :   0.6673 
B( 10-Mg, 31-O ) :   0.6611 B( 11-Mg, 12-O ) :   0.6850 B( 11-Mg, 14-O ) :   0.6815 
B( 11-Mg, 15-O ) :   0.5702 B( 11-Mg, 16-Mg) :   1.9363 B( 11-Mg, 17-Mg) :   0.1391 
B( 11-Mg, 18-Mg) :   0.1068 B( 11-Mg, 19-Mg) :   1.9118 B( 11-Mg, 26-O ) :  -0.9364 
B( 11-Mg, 27-O ) :  -0.9161 B( 11-Mg, 28-O ) :   0.6575 B( 11-Mg, 31-O ) :   0.6651 
B( 12-O , 13-O ) :   0.2216 B( 12-O , 15-O ) :   0.2214 B( 12-O , 16-Mg) :   1.0942 
B( 12-O , 17-Mg) :   1.0930 B( 12-O , 28-O ) :   0.3766 B( 12-O , 29-O ) :   0.3752 
B( 13-O , 14-O ) :   0.2216 B( 13-O , 17-Mg) :   1.0903 B( 13-O , 18-Mg) :   1.0944 
B( 13-O , 29-O ) :   0.3757 B( 13-O , 30-O ) :   0.3744 B( 14-O , 15-O ) :   0.2216 
B( 14-O , 18-Mg) :   1.0973 B( 14-O , 19-Mg) :   1.0973 B( 14-O , 30-O ) :   0.3752 
B( 14-O , 31-O ) :   0.3756 B( 15-O , 16-Mg) :   1.0941 B( 15-O , 19-Mg) :   1.0943 
B( 15-O , 28-O ) :   0.3768 B( 15-O , 31-O ) :   0.3745 B( 16-Mg, 20-O ) :  -1.0316 
B( 16-Mg, 27-O ) :  -1.0339 B( 16-Mg, 28-O ) :   0.6555 B( 17-Mg, 21-O ) :  -1.0400 
B( 17-Mg, 22-O ) :  -1.0553 B( 17-Mg, 29-O ) :   0.6479 B( 18-Mg, 23-O ) :  -1.0325 
B( 18-Mg, 24-O ) :  -1.0273 B( 18-Mg, 30-O ) :   0.6391 B( 19-Mg, 25-O ) :  -1.0299 
B( 19-Mg, 26-O ) :  -1.0414 B( 19-Mg, 31-O ) :   0.6341 B( 20-O , 21-O ) :  -0.3595 
B( 20-O , 32-O ) :  -0.4065 B( 21-O , 33-O ) :  -0.4148 B( 22-O , 23-O ) :  -0.3616 
B( 22-O , 33-O ) :  -0.4141 B( 23-O , 34-O ) :  -0.4119 B( 24-O , 25-O ) :  -0.3622 
B( 24-O , 34-O ) :  -0.4093 B( 25-O , 35-O ) :  -0.4098 B( 26-O , 27-O ) :  -0.3634 
B( 26-O , 35-O ) :  -0.4083 B( 27-O , 32-O ) :  -0.4087 B( 28-O , 32-O ) :  -0.2382 
B( 29-O , 33-O ) :  -0.2386 B( 30-O , 34-O ) :  -0.2413 B( 31-O , 35-O ) :  -0.2365 


-------
TIMINGS
-------

Total SCF time: 0 days 0 hours 41 min 2 sec 

Total time                  ....    2462.224 sec
Sum of individual times     ....    2466.504 sec  (100.2%)

SCF preparation             ....       3.957 sec  (  0.2%)
Fock matrix formation       ....    2360.737 sec  ( 95.9%)
  Startup                   ....       1.370 sec  (  0.1% of F)
  Split-RI-J                ....     158.299 sec  (  6.7% of F)
  Chain of spheres X        ....    2198.941 sec  ( 93.1% of F)
Diagonalization             ....       0.000 sec  (  0.0%)
Density matrix formation    ....       7.170 sec  (  0.3%)
Total Energy calculation    ....       2.862 sec  (  0.1%)
Population analysis         ....       3.974 sec  (  0.2%)
Orbital Transformation      ....      10.793 sec  (  0.4%)
Orbital Orthonormalization  ....       0.000 sec  (  0.0%)
DIIS solution               ....      54.114 sec  (  2.2%)
SOSCF solution              ....      21.321 sec  (  0.9%)
Finished LeanSCF after 2464.3 sec

Maximum memory used throughout the entire LEANSCF-calculation: 1119.7 MB


           ************************************************************
           *        Program running with 8 parallel MPI-processes     *
           *              working on a common directory               *
           ************************************************************

------------------------------------------------------------------------------
                                ORCA  MP2 
------------------------------------------------------------------------------

NOTE: Switching SHARK to Segmented Contraction for MP2
      If that is not desired please turn off the PGCFlag in the input (%shark PGCFlag 0 end)
      Number of basis functions in BAS before restore: 3609
      Number of basis functions in BAS after restore : 3141
Freezing NCore=68 chemical core electrons

-------------
RI-MP2 ENERGY
-------------
Dimension of the orbital basis            ... 3141
Dimension of the AuxC basis               ... 7794
Memory devoted to MP2                     ... 25000 MB   
Data format for matrix containers         ... DOUBLE
Compression type for matrix containers    ... UNCOMPRESSED

-----------------------
SHARK RI TRANSFORMATION
-----------------------

Number of basis functions                ...   3141
Number of aux functions                  ...   7794
Number of operators                      ...      1
Generation of IJK                        ... NO
Generation of IAK                        ... YES
Generation of ABK                        ... NO
Orbital Range Operator  0:   34- 169 to  170-3140

Aux basis identifier                     ...   AUXC
Contraction scheme used                  ... SEGMENTED
Do orthogonalization                     ... YES
All operator combinations                ... NO
Transpose (ia|K)                         ... NO
Integral generator used                  ... LIBINT
Starting integral generation + trafo... 
Half trafo (segmented) done. Total time =398.9 sec. integrals= 89.7 sec trafo=278.0 sec
Integral generation and half transformation done (398.9 sec)

Reading or making V^(-1/2)          ... done (  1.6 sec)
Sorting IAK integrals               ... done (191.3 sec)

SHARK RI integral transformation done. Total time =592.0 sec.

Opening buffers                              ... done

Starting loop over batches of integrals:

Operator 0  - window                       ... ( 34-169)x(170-3140)
Operator 0  - Memory available             ... 25000 MB
Operator 0  - Memory needed per MO         ... 176.7 MB
Operator 0  - Number of orbitals per batch ... 17
Operator 0  - Number of batches            ... 1

OPERATOR  0   PASS   0:  MOs    34 ...   50 +   51 ...   67 +   68 ...   84 +   85 ...  101
                            +  102 ...  118 +  119 ...  135 +  136 ...  152 +  153 ...  169
  Reading integrals       ... ok
  Internal MO  36
  Internal MO  39
  Internal MO  42
  Internal MO  45
  Internal MO  48
Time spent in pair loops =  8871.377 sec
Deleting buffers (Ka|jb) ...done

-----------------------------------------------
 RI-MP2 CORRELATION ENERGY:    -10.187191847 Eh
-----------------------------------------------


-------
TIMINGS
-------

Total time                : 9498.195 sec
Integral trafo            :  592.075 sec (  6.2%)
I/O of integrals          :    1.724 sec (  0.0%)
K(i,j) operators          :  557.241 sec (  5.9%)
T(i,j) pair energies      :   17.999 sec (  0.2%)
V**(-1/2)                 :   34.594 sec (  0.4%)


---------------------------------------
MP2 TOTAL ENERGY:    -5074.620175722 Eh
---------------------------------------

Maximum memory used throughout the entire MP2-calculation: 4191.0 MB

-------------------------   --------------------
FINAL SINGLE POINT ENERGY     -5074.620175722268
-------------------------   --------------------



           ************************************************************
           *        Program running with 8 parallel MPI-processes     *
           *              working on a common directory               *
           ************************************************************

------------------------------------------------------------------------------
                              ORCA PROPERTY CALCULATIONS
------------------------------------------------------------------------------

GBWName                                 ... orca.gbw
Number of atoms                         ...    149
Number of basis functions               ...   3609
Max core memory                         ...  25000 MB

Electric properties:
Dipole moment                           ... YES
Quadrupole moment                       ...  NO
Static polarizability (Dipole/Dipole)   ...  NO
Static polarizability (Dipole/Quad.)    ...  NO
Static polarizability (Quad./Quad.)     ...  NO
Static polarizability (Velocity)        ...  NO

Atomic electric properties:
Dipole moment                           ...  NO
Quadrupole moment                       ...  NO
Static polarizability                   ...  NO

Choice of electric origin               ... Center of mass
Position of electric origin             ...    -0.000000     0.000000    -0.965625

General magnetic properties:
Magnetizability                         ...  NO

EPR properties:
g-Tensor (aka g-matrix)                 ...  NO
Zero-Field splitting spin-orbit         ...  NO
Zero-field splitting spin-spin          ...  NO
Hyperfine couplings                     ...  NO (   0 nuclei)
Quadrupole couplings                    ...  NO (   0 nuclei)
Contact density                         ...  NO (   0 nuclei)

NMR properties:
Chemical shifts                         ...  NO (   0 nuclei)
Spin-rotation constants                 ...  NO (   0 nuclei)
Spin-spin couplings                     ...  NO (   0 nuclei,    0 pairs)

Choice of magnetic origin               ... GIAO
Position of magnetic origin             ...     0.000000     0.000000     0.000000

Properties with geometric perturbations:
SCF Hessian                             ...  NO
IR spectrum                             ...  NO
VCD spectrum                            ...  NO
X-ray spectroscopy properties:
SCF XES/XAS/RIXS spectra                ...  NO


-------------
DIPOLE MOMENT
-------------

Method             : SCF
Type of density    : Electron Density
Multiplicity       :   1
Irrep              :   0
Energy             : -5064.4329838754438242 Eh
Relativity type    : 
Basis              : AO
                                X                 Y                 Z
Electronic contribution:     -0.000024539       0.000050859      42.632035987
Nuclear contribution   :      0.000000000       0.000000000    -868.704173078
                        -----------------------------------------
Total Dipole Moment    :     -0.000024539       0.000050859    -826.072137091
                        -----------------------------------------
Magnitude (a.u.)       :    826.072137091
Magnitude (Debye)      :   2099.708505914



--------------------
Rotational spectrum 
--------------------
 
Rotational constants in cm-1:             0.003062             0.003062             0.001685 
Rotational constants in MHz :            91.787187            91.787187            50.517534 

Dipole components along the rotational axes: 
x,y,z [a.u.] :    -0.000025     0.000051  -826.072137 
x,y,z [Debye]:    -0.000062     0.000129 -2099.708506 

 

Dipole moment calculation done in   0.4 sec 

Maximum memory used throughout the entire PROP-calculation: 742.5 MB

--------------------------------
SUGGESTED CITATIONS FOR THIS RUN
--------------------------------

Below you find a list of papers that are relevant to this ORCA run
We neither can nor want to force you to cite these papers, but we appreciate if you do
You receive ORCA, which is the product of decades of hard work by many enthusiastic individuals, for free
The only thing we kindly ask in return is that you cite our papers,
We deeply appreciate it, if you show your appreciation for ORCA by not just citing the generic ORCA reference.

Please note that relegating all ORCA citations to the supporting information does *not* help us.
SI sections are not indexed - citations you put there will not count into any citation statistics
But we need these citations in order to attract the funding resources that allow us to do what we are doing

Therefore, if you are a happy ORCA user, please consider citing a few of the papers listed below in the main body of your paper

In addition to the list printed below, the program has created the file orca.bibtex that contains the list in bibtex format
You can import this file easily into all common literature databanks and citation aid programs


List of essential papers. We consider these as the minimum necessary citations

  1. Neese,F.
     Software update: the ORCA program system, version 5.0
     WIRES Comput. Molec. Sci., 2022 12(1)e1606
     doi.org/10.1002/wcms.1606

List of papers to cite with high priority. The work reported in these papers was absolutely
necessary for this run to complete.
Our perspective: the developers of density functionals and basis sets usually get cited in chemistry papers
Good! But without the algorithms to do something with them, the functionals or basis sets would not do anything.
Hence, in our opinion, the algorithm design and method developments papers are equally worthy of getting cited

  1. Neese,F.
     An improvement of the resolution of the identity approximation for the formation of the Coulomb matrix
     J. Comp. Chem., 2003 24(14)1740-1747
     doi.org/10.1002/jcc.10318
  2. Neese,F.; Wennmohs,F.; Hansen,A.; Becker,U.
     Efficient, approximate and parallel Hartree-Fock and hybrid DFT calculations. A 'chain-of-spheres' algorithm for the Hartree-Fock exchange
     Chem. Phys., 2009 356(1-3)98-109
     doi.org/10.1016/j.chemphys.2008.10.036
  3. Kossmann,S.; Neese,F.
     Efficient Structure Optimization with Second-Order Many-Body Perturbation Theory: The RIJCOSX-MP2 Method
     J. Theo. Comp. Chem., 2010 6 2325-2338
     doi.org/10.1021/ct100199k
  4. Helmich-Paris,B.; de Souza,B.; Neese,F.; Izsák,R.
     An improved chain of spheres for exchange algorithm
     J. Chem. Phys., 2021 155 104109
     doi.org/doi: 10.1063/5.0058766.
  5. Neese,F.
     The SHARK Integral Generation and Digestion System
     J. Comp. Chem., 2022  1-16
     doi.org/10.1002/jcc.26942

List of suggested additional citations. These are papers that are important in the 'surrounding' of 
of this run, or papers that preceded the highly important papers. If you like your results we are grateful for a citation.

  1. Izsak,R.; Neese,F.
     An overlap fitted chain of spheres exchange method
     J. Chem. Phys., 2011 135 144105
     doi.org/10.1063/1.3646921
  2. Izsak,R.; Hansen,A.; Neese,F.
     The resolution of identity and chain of spheres approximations for the LPNO-CCSD singles Fock term
     Molec. Phys., 2012 110 2413-2417
     doi.org/10.1080/00268976.2012.687466
  3. Neese,F.
     The ORCA program system
     WIRES Comput. Molec. Sci., 2012 2(1)73-78
     doi.org/10.1002/wcms.81
  4. Izsak,R.; Neese,F.; Klopper,W.
     Robust fitting techniques in the chain of spheres approximation to the Fock exchange: The role of the complementary space
     J. Chem. Phys., 2013 139 
     doi.org/10.1063/1.4819264
  5. Neese,F.
     Software update: the ORCA program system, version 4.0
     WIRES Comput. Molec. Sci., 2018 8(1)1-6
     doi.org/10.1002/wcms.1327
  6. Neese,F.; Wennmohs,F.; Becker,U.; Riplinger,C.
     The ORCA quantum chemistry program package
     J. Chem. Phys., 2020 152 Art. No. L224108
     doi.org/10.1063/5.0004608

List of optional additional citations

  1. Neese,F.
     Approximate second-order SCF convergence for spin unrestricted wavefunctions
     Chem. Phys. Lett., 2000 325(1-3)93-98
     doi.org/10.1016/s0009-2614(00)00662-x

Timings for individual modules:

Sum of individual times          ...    12148.639 sec (= 202.477 min)
Startup calculation              ...      138.095 sec (=   2.302 min)   1.1 %
SCF iterations                   ...     2484.070 sec (=  41.401 min)  20.4 %
Property calculations            ...        9.296 sec (=   0.155 min)   0.1 %
MP2 module                       ...     9517.177 sec (= 158.620 min)  78.3 %
                             ****ORCA TERMINATED NORMALLY****
TOTAL RUN TIME: 0 days 3 hours 22 minutes 33 seconds 865 msec
