 vasp.6.3.0 20Jan22 (build Mar 11 2022 13:48:16) complex

 executed on             LinuxIFC date 2023.12.26  17:10:25
 running on  304 total cores
 distrk:  each k-point on  304 cores,    1 groups
 distr:  one band on NCORE=   2 cores,  152 groups


--------------------------------------------------------------------------------------------------------


 INCAR:
   SYSTEM = MgO-rocksalt
   ISMEAR = 0
   SIGMA = 0.05
   EDIFF = 1E-5
   ALGO = ALL
   ISTART = 0
   IBRION = -1
   NSW = 0
   ISYM = 2
   ISIF = 2
   DIPOL = 0.5 0.5 0.5
   IDIPOL = 3
   LDIPOL = .TRUE.
   GGA = PE
   IVDW = 1
   VDW_C6 = 1.75 0.70 0.63 0.70
   VDW_R0 = 1.452 1.342 1.243 1.342
   ENCUT = 600
   PREC = Accurate
   LASPH = .TRUE.
   LREAL = .FALSE.
   ISPIN = 1
   NELM = 200
   NELMIN = 8
   NCORE = 2
   KPAR = 1
   LWAVE = .FALSE.
   LCHARG = .FALSE.

 POTCAR:    PAW_PBE C 08Apr2002
 POTCAR:    PAW_PBE O 08Apr2002
 POTCAR:    PAW_PBE Mg_pv 13Apr2007
 POTCAR:    PAW_PBE O 08Apr2002
 -----------------------------------------------------------------------------
|                                                                             |
|           W    W    AA    RRRRR   N    N  II  N    N   GGGG   !!!           |
|           W    W   A  A   R    R  NN   N  II  NN   N  G    G  !!!           |
|           W    W  A    A  R    R  N N  N  II  N N  N  G       !!!           |
|           W WW W  AAAAAA  RRRRR   N  N N  II  N  N N  G  GGG   !            |
|           WW  WW  A    A  R   R   N   NN  II  N   NN  G    G                |
|           W    W  A    A  R    R  N    N  II  N    N   GGGG   !!!           |
|                                                                             |
|     For optimal performance we recommend to set                             |
|       NCORE = 2 up to number-of-cores-per-socket                            |
|     NCORE specifies how many cores store one orbital (NPAR=cpu/NCORE).      |
|     This setting can greatly improve the performance of VASP for DFT.       |
|     The default, NCORE=1 might be grossly inefficient on modern             |
|     multi-core architectures or massively parallel machines. Do your        |
|     own testing! More info at https://www.vasp.at/wiki/index.php/NCORE      |
|     Unfortunately you need to use the default for GW and RPA                |
|     calculations (for HF NCORE is supported but not extensively tested      |
|     yet).                                                                   |
|                                                                             |
 -----------------------------------------------------------------------------

 POTCAR:    PAW_PBE C 08Apr2002
   SHA256 =  253f7b50bb8d59471dbedb8285d89021f4a42ed1a2c5d38a03a736e69125dd95 C/POTCAR
   COPYR  = (c) Copyright 08Apr2002 Georg Kresse
   COPYR  = This file is part of the software VASP. Any use, copying, and all other rights are regul
   COPYR  = If you do not have a valid VASP license, you may not use, copy or distribute this file.
   VRHFIN =C: s2p2
   LEXCH  = PE
   EATOM  =   147.1560 eV,   10.8157 Ry

   TITEL  = PAW_PBE C 08Apr2002
   LULTRA =        F    use ultrasoft PP ?
   IUNSCR =        1    unscreen: 0-lin 1-nonlin 2-no
   RPACOR =    1.200    partial core radius
   POMASS =   12.011; ZVAL   =    4.000    mass and valenz
   RCORE  =    1.500    outmost cutoff radius
   RWIGS  =    1.630; RWIGS  =    0.863    wigner-seitz radius (au A)
   ENMAX  =  400.000; ENMIN  =  300.000 eV
   ICORE  =        2    local potential
   LCOR   =        T    correct aug charges
   LPAW   =        T    paw PP
   EAUG   =  644.873
   DEXC   =    0.000
   RMAX   =    1.529    core radius for proj-oper
   RAUG   =    1.300    factor for augmentation sphere
   RDEP   =    1.501    radius for radial grids
   RDEPT  =    1.300    core radius for aug-charge

   Atomic configuration
    4 entries
     n  l   j            E        occ.
     1  0  0.50      -273.3789   2.0000
     2  0  0.50       -13.7508   2.0000
     2  1  0.50        -5.2854   2.0000
     3  2  1.50        -5.4423   0.0000
   Description
     l       E           TYP  RCUT    TYP  RCUT
     0    -13.7508458     23  1.200
     0     -8.2022199     23  1.200
     1     -5.2854383     23  1.500
     1     34.0145650     23  1.500
     2     -5.4423304      7  1.500
  local pseudopotential read in
  partial core-charges read in
  partial kinetic energy density read in
  atomic valenz-charges read in
  non local Contribution for L=           0  read in
    real space projection operators read in
  non local Contribution for L=           0  read in
    real space projection operators read in
  non local Contribution for L=           1  read in
    real space projection operators read in
  non local Contribution for L=           1  read in
    real space projection operators read in
    PAW grid and wavefunctions read in

   number of l-projection  operators is LMAX  =           4
   number of lm-projection operators is LMMAX =           8

 POTCAR:    PAW_PBE O 08Apr2002
   SHA256 =  818f92134a0a090dccd8ba1447fa70422a3b330e708bb4f08108d8ae51209ddf O/POTCAR
   COPYR  = (c) Copyright 08Apr2002 Georg Kresse
   COPYR  = This file is part of the software VASP. Any use, copying, and all other rights are regul
   COPYR  = If you do not have a valid VASP license, you may not use, copy or distribute this file.
   VRHFIN =O: s2p4
   LEXCH  = PE
   EATOM  =   432.3788 eV,   31.7789 Ry

   TITEL  = PAW_PBE O 08Apr2002
   LULTRA =        F    use ultrasoft PP ?
   IUNSCR =        1    unscreen: 0-lin 1-nonlin 2-no
   RPACOR =    1.200    partial core radius
   POMASS =   16.000; ZVAL   =    6.000    mass and valenz
   RCORE  =    1.520    outmost cutoff radius
   RWIGS  =    1.550; RWIGS  =    0.820    wigner-seitz radius (au A)
   ENMAX  =  400.000; ENMIN  =  300.000 eV
   ICORE  =        2    local potential
   LCOR   =        T    correct aug charges
   LPAW   =        T    paw PP
   EAUG   =  605.392
   DEXC   =    0.000
   RMAX   =    1.553    core radius for proj-oper
   RAUG   =    1.300    factor for augmentation sphere
   RDEP   =    1.550    radius for radial grids
   RDEPT  =    1.329    core radius for aug-charge

   Atomic configuration
    4 entries
     n  l   j            E        occ.
     1  0  0.50      -514.6923   2.0000
     2  0  0.50       -23.9615   2.0000
     2  1  0.50        -9.0305   4.0000
     3  2  1.50        -9.5241   0.0000
   Description
     l       E           TYP  RCUT    TYP  RCUT
     0    -23.9615318     23  1.200
     0     -9.5240782     23  1.200
     1     -9.0304911     23  1.520
     1      8.1634956     23  1.520
     2     -9.5240782      7  1.500
  local pseudopotential read in
  partial core-charges read in
  partial kinetic energy density read in
  kinetic energy density of atom read in
  atomic valenz-charges read in
  non local Contribution for L=           0  read in
    real space projection operators read in
  non local Contribution for L=           0  read in
    real space projection operators read in
  non local Contribution for L=           1  read in
    real space projection operators read in
  non local Contribution for L=           1  read in
    real space projection operators read in
    PAW grid and wavefunctions read in

   number of l-projection  operators is LMAX  =           4
   number of lm-projection operators is LMMAX =           8

 POTCAR:    PAW_PBE Mg_pv 13Apr2007
   SHA256 =  f474ac0dd33840b9ae76c01d57fea79fdf77cdfbb07d5ade72c65f83c709b62b Mg_pv/POTCAR
   COPYR  = (c) Copyright 13Apr2007 Georg Kresse
   COPYR  = This file is part of the software VASP. Any use, copying, and all other rights are regul
   COPYR  = If you do not have a valid VASP license, you may not use, copy or distribute this file.
   VRHFIN =Mg: p6s2
   LEXCH  = PE
   EATOM  =  1056.7344 eV,   77.6678 Ry

   TITEL  = PAW_PBE Mg_pv 13Apr2007
   LULTRA =        F    use ultrasoft PP ?
   IUNSCR =        1    unscreen: 0-lin 1-nonlin 2-no
   RPACOR =    1.500    partial core radius
   POMASS =   24.305; ZVAL   =    8.000    mass and valenz
   RCORE  =    2.000    outmost cutoff radius
   RWIGS  =    2.000; RWIGS  =    1.058    wigner-seitz radius (au A)
   ENMAX  =  403.929; ENMIN  =  302.947 eV
   RCLOC  =    1.506    cutoff for local pot
   LCOR   =        T    correct aug charges
   LPAW   =        T    paw PP
   EAUG   =  758.780
   DEXC   =    0.000
   RMAX   =    2.045    core radius for proj-oper
   RAUG   =    1.300    factor for augmentation sphere
   RDEP   =    2.025    radius for radial grids
   RDEPT  =    1.557    core radius for aug-charge

   Atomic configuration
    5 entries
     n  l   j            E        occ.
     1  0  0.50     -1259.6230   2.0000
     2  0  0.50       -79.8442   2.0000
     2  1  1.50       -46.6121   6.0000
     3  0  0.50        -4.7055   2.0000
     3  2  1.50        -1.3606   0.0000
   Description
     l       E           TYP  RCUT    TYP  RCUT
     1    -46.6121073     23  1.600
     1      2.7211652     23  1.600
     0     -4.7054661     23  2.000
     0     61.2262170     23  2.000
     2     -1.3605826     23  2.000
  local pseudopotential read in
  partial core-charges read in
  partial kinetic energy density read in
  atomic valenz-charges read in
  non local Contribution for L=           1  read in
    real space projection operators read in
  non local Contribution for L=           1  read in
    real space projection operators read in
  non local Contribution for L=           0  read in
    real space projection operators read in
  non local Contribution for L=           0  read in
    real space projection operators read in
  non local Contribution for L=           2  read in
    real space projection operators read in
    PAW grid and wavefunctions read in

   number of l-projection  operators is LMAX  =           5
   number of lm-projection operators is LMMAX =          13

 POTCAR:    PAW_PBE O 08Apr2002
   SHA256 =  818f92134a0a090dccd8ba1447fa70422a3b330e708bb4f08108d8ae51209ddf O/POTCAR
   COPYR  = (c) Copyright 08Apr2002 Georg Kresse
   COPYR  = This file is part of the software VASP. Any use, copying, and all other rights are regul
   COPYR  = If you do not have a valid VASP license, you may not use, copy or distribute this file.
   VRHFIN =O: s2p4
   LEXCH  = PE
   EATOM  =   432.3788 eV,   31.7789 Ry

   TITEL  = PAW_PBE O 08Apr2002
   LULTRA =        F    use ultrasoft PP ?
   IUNSCR =        1    unscreen: 0-lin 1-nonlin 2-no
   RPACOR =    1.200    partial core radius
   POMASS =   16.000; ZVAL   =    6.000    mass and valenz
   RCORE  =    1.520    outmost cutoff radius
   RWIGS  =    1.550; RWIGS  =    0.820    wigner-seitz radius (au A)
   ENMAX  =  400.000; ENMIN  =  300.000 eV
   ICORE  =        2    local potential
   LCOR   =        T    correct aug charges
   LPAW   =        T    paw PP
   EAUG   =  605.392
   DEXC   =    0.000
   RMAX   =    1.553    core radius for proj-oper
   RAUG   =    1.300    factor for augmentation sphere
   RDEP   =    1.550    radius for radial grids
   RDEPT  =    1.329    core radius for aug-charge

   Atomic configuration
    4 entries
     n  l   j            E        occ.
     1  0  0.50      -514.6923   2.0000
     2  0  0.50       -23.9615   2.0000
     2  1  0.50        -9.0305   4.0000
     3  2  1.50        -9.5241   0.0000
   Description
     l       E           TYP  RCUT    TYP  RCUT
     0    -23.9615318     23  1.200
     0     -9.5240782     23  1.200
     1     -9.0304911     23  1.520
     1      8.1634956     23  1.520
     2     -9.5240782      7  1.500
  local pseudopotential read in
  partial core-charges read in
  partial kinetic energy density read in
  kinetic energy density of atom read in
  atomic valenz-charges read in
  non local Contribution for L=           0  read in
    real space projection operators read in
  non local Contribution for L=           0  read in
    real space projection operators read in
  non local Contribution for L=           1  read in
    real space projection operators read in
  non local Contribution for L=           1  read in
    real space projection operators read in
    PAW grid and wavefunctions read in

   number of l-projection  operators is LMAX  =           4
   number of lm-projection operators is LMMAX =           8

 -----------------------------------------------------------------------------
|                                                                             |
|               ----> ADVICE to this user running VASP <----                  |
|                                                                             |
|     You have a (more or less) 'large supercell' and for larger cells it     |
|     might be more efficient to use real-space projection operators.         |
|     Therefore, try LREAL= Auto in the INCAR file.                           |
|     Mind: For very accurate calculation, you might also keep the            |
|     reciprocal projection scheme (i.e. LREAL=.FALSE.).                      |
|                                                                             |
 -----------------------------------------------------------------------------

  PAW_PBE C 08Apr2002                   :
 energy of atom  1       EATOM= -147.1560
 kinetic energy error for atom=    0.0057 (will be added to EATOM!!)
  PAW_PBE O 08Apr2002                   :
 energy of atom  2       EATOM= -432.3788
 kinetic energy error for atom=    0.0168 (will be added to EATOM!!)
  PAW_PBE Mg_pv 13Apr2007               :
 energy of atom  3       EATOM=-1056.7344
 kinetic energy error for atom=    0.0221 (will be added to EATOM!!)
  PAW_PBE O 08Apr2002                   :
 energy of atom  4       EATOM= -432.3788
 kinetic energy error for atom=    0.0168 (will be added to EATOM!!)


 POSCAR:  C  O Mg  O
  positions in direct lattice
  No initial velocities read in
 exchange correlation table for  LEXCH =        8
   RHO(1)=    0.500       N(1)  =     2000
   RHO(2)=  100.500       N(2)  =     4000



--------------------------------------------------------------------------------------------------------


 ion  position               nearest neighbor table
   1  0.500  0.500  0.765-   2 1.15
   2  0.500  0.500  0.819-   1 1.15
   3  0.000  0.750  0.352-  35 2.11  37 2.11  38 2.11  45 2.11  54 2.11
   4  0.250  0.000  0.352-  36 2.11  37 2.11  38 2.11  46 2.11  53 2.11
   5  0.000  0.000  0.451-  37 2.11  36 2.11  35 2.11  43 2.11  52 2.11  41 2.12
   6  0.250  0.750  0.451-  38 2.11  36 2.11  35 2.11  44 2.11  51 2.11  42 2.12
   7  0.000  0.750  0.550-  49 2.11  42 2.11  58 2.11  41 2.11  35 2.12  39 2.15
   8  0.250  0.000  0.550-  57 2.11  50 2.11  42 2.11  41 2.11  36 2.12  40 2.15
   9  0.000  0.000  0.649-  39 2.11  40 2.11  47 2.11  56 2.11  41 2.11
  10  0.250  0.750  0.649-  42 2.11  40 2.11  39 2.11  48 2.11  55 2.11
  11  0.000  0.250  0.352-  43 2.11  37 2.11  45 2.11  46 2.11  62 2.11
  12  0.250  0.500  0.352-  44 2.11  38 2.11  45 2.11  46 2.11  61 2.11
  13  0.000  0.500  0.451-  45 2.11  43 2.11  44 2.11  35 2.11  60 2.11  49 2.12
  14  0.250  0.250  0.451-  46 2.11  43 2.11  44 2.11  36 2.11  59 2.11  50 2.12
  15  0.000  0.250  0.550-  49 2.11  50 2.11  66 2.11  41 2.11  43 2.12  47 2.15
  16  0.250  0.500  0.550-  65 2.11  50 2.11  42 2.11  49 2.11  44 2.13  48 2.15
  17  0.000  0.500  0.649-  48 2.10  64 2.10  49 2.11  47 2.11  39 2.11
  18  0.250  0.250  0.649-  50 2.11  47 2.11  40 2.11  48 2.11  63 2.11
  19  0.500  0.750  0.352-  51 2.11  38 2.11  53 2.11  54 2.11  61 2.11
  20  0.750  0.000  0.352-  52 2.11  37 2.11  53 2.11  54 2.11  62 2.11
  21  0.500  0.000  0.451-  53 2.11  51 2.11  52 2.11  36 2.11  59 2.11  57 2.12
  22  0.750  0.750  0.451-  54 2.11  51 2.11  52 2.11  35 2.11  60 2.11  58 2.12
  23  0.500  0.750  0.550-  65 2.11  58 2.11  42 2.11  57 2.11  51 2.13  55 2.15
  24  0.750  0.000  0.550-  57 2.11  58 2.11  66 2.11  41 2.11  52 2.12  56 2.15
  25  0.500  0.000  0.649-  55 2.10  63 2.10  57 2.11  40 2.11  56 2.11
  26  0.750  0.750  0.649-  58 2.11  56 2.11  39 2.11  55 2.11  64 2.11
  27  0.500  0.250  0.352-  59 2.11  53 2.11  46 2.11  61 2.11  62 2.11
  28  0.750  0.500  0.352-  60 2.11  54 2.11  45 2.11  61 2.11  62 2.11
  29  0.500  0.500  0.451-  61 2.11  51 2.11  59 2.11  60 2.11  44 2.11  65 2.13
  30  0.750  0.250  0.451-  62 2.11  52 2.11  59 2.11  60 2.11  43 2.11  66 2.12
  31  0.500  0.250  0.550-  65 2.11  50 2.11  66 2.11  57 2.11  59 2.13  63 2.15
  32  0.750  0.500  0.550-  65 2.11  58 2.11  66 2.11  49 2.11  60 2.13  64 2.15
  33  0.500  0.500  0.651-  48 2.12  55 2.12  63 2.12  64 2.12  65 2.14
  34  0.750  0.250  0.649-  66 2.11  56 2.11  47 2.11  64 2.11  63 2.11
  35  0.000  0.750  0.451-   3 2.11   5 2.11   6 2.11  13 2.11  22 2.11   7 2.12
  36  0.250  0.000  0.451-   4 2.11   5 2.11   6 2.11  14 2.11  21 2.11   8 2.12
  37  0.000  0.000  0.352-   5 2.11   4 2.11   3 2.11  11 2.11  20 2.11
  38  0.250  0.750  0.352-   6 2.11   4 2.11   3 2.11  12 2.11  19 2.11
  39  0.000  0.750  0.651-   9 2.11  10 2.11  26 2.11  17 2.11   7 2.15
  40  0.250  0.000  0.651-   9 2.11  10 2.11  18 2.11  25 2.11   8 2.15
  41  0.000  0.000  0.550-   9 2.11   8 2.11   7 2.11  15 2.11  24 2.11   5 2.12
  42  0.250  0.750  0.550-  10 2.11   8 2.11   7 2.11  16 2.11  23 2.11   6 2.12
  43  0.000  0.250  0.451-  11 2.11   5 2.11  13 2.11  14 2.11  30 2.11  15 2.12
  44  0.250  0.500  0.451-  12 2.11   6 2.11  13 2.11  14 2.11  29 2.11  16 2.13
  45  0.000  0.500  0.352-  13 2.11  11 2.11  12 2.11   3 2.11  28 2.11
  46  0.250  0.250  0.352-  14 2.11  11 2.11  12 2.11   4 2.11  27 2.11
  47  0.000  0.250  0.651-   9 2.11  18 2.11  34 2.11  17 2.11  15 2.15
  48  0.249  0.500  0.651-  17 2.10  10 2.11  18 2.11  33 2.12  16 2.15
  49  0.000  0.500  0.550-  17 2.11  15 2.11   7 2.11  16 2.11  32 2.11  13 2.12
  50  0.250  0.250  0.550-  18 2.11  15 2.11   8 2.11  16 2.11  31 2.11  14 2.12
  51  0.500  0.750  0.451-  19 2.11   6 2.11  21 2.11  22 2.11  29 2.11  23 2.13
  52  0.750  0.000  0.451-  20 2.11   5 2.11  21 2.11  22 2.11  30 2.11  24 2.12
  53  0.500  0.000  0.352-  21 2.11  19 2.11  20 2.11   4 2.11  27 2.11
  54  0.750  0.750  0.352-  22 2.11  19 2.11  20 2.11   3 2.11  28 2.11
  55  0.500  0.751  0.651-  25 2.10  10 2.11  26 2.11  33 2.12  23 2.15
  56  0.750  0.000  0.651-   9 2.11  26 2.11  34 2.11  25 2.11  24 2.15
  57  0.500  0.000  0.550-  25 2.11  24 2.11   8 2.11  23 2.11  31 2.11  21 2.12
  58  0.750  0.750  0.550-  26 2.11  24 2.11   7 2.11  32 2.11  23 2.11  22 2.12
  59  0.500  0.250  0.451-  27 2.11  21 2.11  14 2.11  29 2.11  30 2.11  31 2.13
  60  0.750  0.500  0.451-  28 2.11  22 2.11  13 2.11  29 2.11  30 2.11  32 2.13
  61  0.500  0.500  0.352-  29 2.11  19 2.11  27 2.11  28 2.11  12 2.11
  62  0.750  0.250  0.352-  30 2.11  20 2.11  27 2.11  28 2.11  11 2.11
  63  0.500  0.249  0.651-  25 2.10  18 2.11  34 2.11  33 2.12  31 2.15
  64  0.751  0.500  0.651-  17 2.10  26 2.11  34 2.11  33 2.12  32 2.15
  65  0.500  0.500  0.550-  16 2.11  23 2.11  31 2.11  32 2.11  29 2.13  33 2.14
  66  0.750  0.250  0.550-  34 2.11  24 2.11  15 2.11  32 2.11  31 2.11  30 2.12

  LATTYP: Found a simple tetragonal cell.
 ALAT       =     8.4409846542
 C/A-ratio  =     2.5270438657

  Lattice vectors:

 A1 = (   8.4409846542,   0.0000000000,   0.0000000000)
 A2 = (   0.0000000000,   8.4409846542,   0.0000000000)
 A3 = (   0.0000000000,   0.0000000000,  21.3307384906)


Analysis of symmetry for initial positions (statically):
=====================================================================
 Subroutine PRICEL returns:
 Original cell was already a primitive cell.


 Routine SETGRP: Setting up the symmetry group for a
 simple tetragonal supercell.


 Subroutine GETGRP returns: Found  8 space group operations
 (whereof  8 operations were pure point group operations)
 out of a pool of 16 trial point group operations.


The static configuration has the point symmetry C_4v.


Analysis of symmetry for dynamics (positions and initial velocities):
=====================================================================
 Subroutine PRICEL returns:
 Original cell was already a primitive cell.


 Routine SETGRP: Setting up the symmetry group for a
 simple tetragonal supercell.


 Subroutine GETGRP returns: Found  8 space group operations
 (whereof  8 operations were pure point group operations)
 out of a pool of 16 trial point group operations.


The dynamic configuration has the point symmetry C_4v.


Analysis of constrained symmetry for selective dynamics:
=====================================================================
 Subroutine PRICEL returns:
 Original cell was already a primitive cell.


 Routine SETGRP: Setting up the symmetry group for a
 simple tetragonal supercell.


 Subroutine GETGRP returns: Found  8 space group operations
 (whereof  8 operations were pure point group operations)
 out of a pool of 16 trial point group operations.


The constrained configuration has the point symmetry C_4v.


 Subroutine INISYM returns: Found  8 space group operations
 (whereof  8 operations are pure point group operations),
 and found     1 'primitive' translations


----------------------------------------------------------------------------------------

                                     Primitive cell

  volume of cell :    1519.8199

  direct lattice vectors                    reciprocal lattice vectors
     8.440984654  0.000000000  0.000000000     0.118469591  0.000000000  0.000000000
     0.000000000  8.440984654  0.000000000     0.000000000  0.118469591  0.000000000
     0.000000000  0.000000000 21.330738491     0.000000000  0.000000000  0.046880702

  length of vectors
     8.440984654  8.440984654 21.330738491     0.118469591  0.118469591  0.046880702

  position of ions in fractional coordinates (direct lattice)
     0.500000000  0.500000000  0.765053803
     0.500000000  0.500000000  0.818817521
     0.000000000  0.750000000  0.351605267
     0.250000000  0.000000000  0.351605267
     0.000000000  0.000000000  0.450535089
     0.250000000  0.750000000  0.450535089
     0.000000000  0.749939268  0.550083239
     0.250060732  0.000000000  0.550083239
     0.000000000  0.000000000  0.648745309
     0.249858327  0.750141673  0.648569547
     0.000000000  0.250000000  0.351605267
     0.250000000  0.500000000  0.351605267
     0.000000000  0.500000000  0.450535089
     0.250000000  0.250000000  0.450535089
     0.000000000  0.250060732  0.550083239
     0.250378379  0.500000000  0.550219524
     0.000000000  0.500000000  0.648615280
     0.249858327  0.249858327  0.648569547
     0.500000000  0.750000000  0.351605267
     0.750000000  0.000000000  0.351605267
     0.500000000  0.000000000  0.450535089
     0.750000000  0.750000000  0.450535089
     0.500000000  0.749621621  0.550219524
     0.749939268  0.000000000  0.550083239
     0.500000000  0.000000000  0.648615280
     0.750141673  0.750141673  0.648569547
     0.500000000  0.250000000  0.351605267
     0.750000000  0.500000000  0.351605267
     0.500000000  0.500000000  0.450535089
     0.750000000  0.250000000  0.450535089
     0.500000000  0.250378379  0.550219524
     0.749621621  0.500000000  0.550219524
     0.500000000  0.500000000  0.650616960
     0.750141673  0.249858327  0.648569547
     0.000000000  0.750000000  0.450535089
     0.250000000  0.000000000  0.450535089
     0.000000000  0.000000000  0.351605267
     0.250000000  0.750000000  0.351605267
     0.000000000  0.750218533  0.650979255
     0.249781467  0.000000000  0.650979255
     0.000000000  0.000000000  0.549809890
     0.249945770  0.750054230  0.549859113
     0.000000000  0.250000000  0.450535089
     0.250000000  0.500000000  0.450535089
     0.000000000  0.500000000  0.351605267
     0.250000000  0.250000000  0.351605267
     0.000000000  0.249781467  0.650979255
     0.248822710  0.500000000  0.650882872
     0.000000000  0.500000000  0.549762666
     0.249945770  0.249945770  0.549859113
     0.500000000  0.750000000  0.450535089
     0.750000000  0.000000000  0.450535089
     0.500000000  0.000000000  0.351605267
     0.750000000  0.750000000  0.351605267
     0.500000000  0.751177290  0.650882872
     0.750218533  0.000000000  0.650979255
     0.500000000  0.000000000  0.549762666
     0.750054230  0.750054230  0.549859113
     0.500000000  0.250000000  0.450535089
     0.750000000  0.500000000  0.450535089
     0.500000000  0.500000000  0.351605267
     0.750000000  0.250000000  0.351605267
     0.500000000  0.248822710  0.650882872
     0.751177290  0.500000000  0.650882872
     0.500000000  0.500000000  0.550231357
     0.750054230  0.249945770  0.549859113

  ion indices of the primitive-cell ions
   primitive index   ion index
                 1           1
                 2           2
                 3           3
                 4           4
                 5           5
                 6           6
                 7           7
                 8           8
                 9           9
                10          10
                11          11
                12          12
                13          13
                14          14
                15          15
                16          16
                17          17
                18          18
                19          19
                20          20
                21          21
                22          22
                23          23
                24          24
                25          25
                26          26
                27          27
                28          28
                29          29
                30          30
                31          31
                32          32
                33          33
                34          34
                35          35
                36          36
                37          37
                38          38
                39          39
                40          40
                41          41
                42          42
                43          43
                44          44
                45          45
                46          46
                47          47
                48          48
                49          49
                50          50
                51          51
                52          52
                53          53
                54          54
                55          55
                56          56
                57          57
                58          58
                59          59
                60          60
                61          61
                62          62
                63          63
                64          64
                65          65
                66          66

----------------------------------------------------------------------------------------



 KPOINTS: pymatgen v2020.8.13 with grid density =

Automatic generation of k-mesh.
 Grid dimensions read from file:
 generate k-points for:    2    2    1

 Generating k-lattice:

  Cartesian coordinates                     Fractional coordinates (reciprocal lattice)
     0.059234796  0.000000000  0.000000000     0.500000000  0.000000000  0.000000000
     0.000000000  0.059234796  0.000000000     0.000000000  0.500000000  0.000000000
     0.000000000  0.000000000  0.046880702     0.000000000  0.000000000  1.000000000

  Length of vectors
     0.059234796  0.059234796  0.046880702

  Shift w.r.t. Gamma in fractional coordinates (k-lattice)
     0.000000000  0.000000000  0.000000000


 Subroutine IBZKPT returns following result:
 ===========================================

 Found      3 irreducible k-points:

 Following reciprocal coordinates:
            Coordinates               Weight
  0.000000  0.000000  0.000000      1.000000
  0.500000  0.000000  0.000000      2.000000
  0.500000  0.500000  0.000000      1.000000

 Following cartesian coordinates:
            Coordinates               Weight
  0.000000  0.000000  0.000000      1.000000
  0.059235  0.000000  0.000000      2.000000
  0.059235  0.059235  0.000000      1.000000



--------------------------------------------------------------------------------------------------------




 Dimension of arrays:
   k-points           NKPTS =      3   k-points in BZ     NKDIM =      3   number of bands    NBANDS=    304
   number of dos      NEDOS =    301   number of ions     NIONS =     66
   non local maximal  LDIM  =      5   non local SUM 2l+1 LMDIM =     13
   total plane-waves  NPLWV = 882000
   max r-space proj   IRMAX =      1   max aug-charges    IRDMAX=  11635
   dimension x,y,z NGX =    70 NGY =   70 NGZ =  180
   dimension x,y,z NGXF=   140 NGYF=  140 NGZF=  360
   support grid    NGXF=   140 NGYF=  140 NGZF=  360
   ions per type =               1   1  32  32
   NGX,Y,Z   is equivalent  to a cutoff of  13.79, 13.79, 14.03 a.u.
   NGXF,Y,Z  is equivalent  to a cutoff of  27.57, 27.57, 28.06 a.u.

 SYSTEM =  MgO-rocksalt
 POSCAR =   C  O Mg  O

 Startparameter for this run:
   NWRITE =      2    write-flag & timer
   PREC   = accura    normal or accurate (medium, high low for compatibility)
   ISTART =      0    job   : 0-new  1-cont  2-samecut
   ICHARG =      2    charge: 1-file 2-atom 10-const
   ISPIN  =      1    spin polarized calculation?
   LNONCOLLINEAR =      F non collinear calculations
   LSORBIT =      F    spin-orbit coupling
   INIWAV =      1    electr: 0-lowe 1-rand  2-diag
   LASPH  =      T    aspherical Exc in radial PAW
 Electronic Relaxation 1
   ENCUT  =  600.0 eV  44.10 Ry    6.64 a.u.  16.86 16.86 42.60*2*pi/ulx,y,z
   ENINI  =  600.0     initial cutoff
   ENAUG  =  758.8 eV  augmentation charge cutoff
   NELM   =    200;   NELMIN=  8; NELMDL= -5     # of ELM steps
   EDIFF  = 0.1E-04   stopping-criterion for ELM
   LREAL  =      F    real-space projection
   NLSPLINE    = F    spline interpolate recip. space projectors
   LCOMPAT=      F    compatible to vasp.4.4
   GGA_COMPAT  = T    GGA compatible to vasp.4.4-vasp.4.6
   LMAXPAW     = -100 max onsite density
   LMAXMIX     =    2 max onsite mixed and CHGCAR
   VOSKOWN=      0    Vosko Wilk Nusair interpolation
   ROPT   =    0.00000   0.00000   0.00000   0.00000
 Ionic relaxation
   EDIFFG = 0.1E-03   stopping-criterion for IOM
   NSW    =      0    number of steps for IOM
   NBLOCK =      1;   KBLOCK =      1    inner block; outer block
   IBRION =     -1    ionic relax: 0-MD 1-quasi-New 2-CG
   NFREE  =      0    steps in history (QN), initial steepest desc. (CG)
   ISIF   =      2    stress and relaxation
   IWAVPR =     10    prediction:  0-non 1-charg 2-wave 3-comb
   ISYM   =      2    0-nonsym 1-usesym 2-fastsym
   LCORR  =      T    Harris-Foulkes like correction to forces

   POTIM  = 0.5000    time-step for ionic-motion
   TEIN   =    0.0    initial temperature
   TEBEG  =    0.0;   TEEND  =   0.0 temperature during run
   SMASS  =  -3.00    Nose mass-parameter (am)
   estimated Nose-frequenzy (Omega)   =  0.10E-29 period in steps = 0.13E+47 mass=  -0.163E-26a.u.
   SCALEE = 1.0000    scale energy and forces
   NPACO  =    256;   APACO  = 10.0  distance and # of slots for P.C.
   PSTRESS=    0.0 pullay stress

  Mass of Ions in am
   POMASS =  12.01 16.00 24.30 16.00
  Ionic Valenz
   ZVAL   =   4.00  6.00  8.00  6.00
  Atomic Wigner-Seitz radii
   RWIGS  =  -1.00 -1.00 -1.00 -1.00
  virtual crystal weights
   VCA    =   1.00  1.00  1.00  1.00
   NELECT =     458.0000    total number of electrons
   NUPDOWN=      -1.0000    fix difference up-down

 DOS related values:
   EMIN   =  10.00;   EMAX   =-10.00  energy-range for DOS
   EFERMI =   0.00
   ISMEAR =     0;   SIGMA  =   0.05  broadening in eV -4-tet -1-fermi 0-gaus

 Electronic relaxation 2 (details)
   IALGO  =     58    algorithm
   LDIAG  =      T    sub-space diagonalisation (order eigenvalues)
   LSUBROT=      F    optimize rotation matrix (better conditioning)
   TURBO    =      0    0=normal 1=particle mesh
   IRESTART =      0    0=no restart 2=restart with 2 vectors
   NREBOOT  =      0    no. of reboots
   NMIN     =      0    reboot dimension
   EREF     =   0.00    reference energy to select bands
   IMIX   =      4    mixing-type and parameters
     AMIX     =   0.40;   BMIX     =  1.00
     AMIX_MAG =   1.60;   BMIX_MAG =  1.00
     AMIN     =   0.10
     WC   =   100.;   INIMIX=   1;  MIXPRE=   1;  MAXMIX= -45

 Intra band minimization:
   WEIMIN = 0.0000     energy-eigenvalue tresh-hold
   EBREAK =  0.82E-08  absolut break condition
   DEPER  =   0.30     relativ break condition

   TIME   =   0.40     timestep for ELM

  volume/ion in A,a.u.               =      23.03       155.40
  Fermi-wavevector in a.u.,A,eV,Ry     =   1.097571  2.074108 16.390423  1.204662
  Thomas-Fermi vector in A             =   2.233933

 Write flags
   LWAVE        =      F    write WAVECAR
   LDOWNSAMPLE  =      F    k-point downsampling of WAVECAR
   LCHARG       =      F    write CHGCAR
   LVTOT        =      F    write LOCPOT, total local potential
   LVHAR        =      F    write LOCPOT, Hartree potential only
   LELF         =      F    write electronic localiz. function (ELF)
   LORBIT       =      0    0 simple, 1 ext, 2 COOP (PROOUT), +10 PAW based schemes


 Dipole corrections
   LMONO  =      F    monopole corrections only (constant potential shift)
   LDIPOL =      T    correct potential (dipole corrections)
   IDIPOL =      3    1-x, 2-y, 3-z, 4-all directions
   EPSILON=  1.0000000 bulk dielectric constant

 Exchange correlation treatment:
   GGA     =    PE    GGA type
   LEXCH   =     8    internal setting for exchange type
   LIBXC   =     F    Libxc
   VOSKOWN =     0    Vosko Wilk Nusair interpolation
   LHFCALC =     F    Hartree Fock is set to
   LHFONE  =     F    Hartree Fock one center treatment
   AEXX    =    0.0000 exact exchange contribution

 Linear response parameters
   LEPSILON=     F    determine dielectric tensor
   LRPA    =     F    only Hartree local field effects (RPA)
   LNABLA  =     F    use nabla operator in PAW spheres
   LVEL    =     F    velocity operator in full k-point grid
   CSHIFT  =0.1000    complex shift for real part using Kramers Kronig
   OMEGAMAX=  -1.0    maximum frequency
   DEG_THRESHOLD= 0.2000000E-02 threshold for treating states as degnerate
   RTIME   =   -0.100 relaxation time in fs
  (WPLASMAI=    0.000 imaginary part of plasma frequency in eV, 0.658/RTIME)
   DFIELD  = 0.0000000 0.0000000 0.0000000 field for delta impulse in time

  Optional k-point grid parameters
   LKPOINTS_OPT  =     F    use optional k-point grid
   KPOINTS_OPT_MODE=     1    mode for optional k-point grid

 Orbital magnetization related:
   ORBITALMAG=     F  switch on orbital magnetization
   LCHIMAG   =     F  perturbation theory with respect to B field
   DQ        =  0.001000  dq finite difference perturbation B field
   LLRAUG    =     F  two centre corrections for induced B field



--------------------------------------------------------------------------------------------------------


 Static calculation
 charge density and potential will be updated during run
 non-spin polarized calculation
 Conjugate gradient for all bands (Freysoldt, et al. PRB 79, 241103 (2009))
 preconditioned conjugated gradient
 perform sub-space diagonalisation
    before iterative eigenvector-optimisation
 modified Broyden-mixing scheme, WC =      100.0
 initial mixing is a Kerker type mixing with AMIX =  0.4000 and BMIX =      1.0000
 Hartree-type preconditioning will be used
 using additional bands           75
 reciprocal scheme for non local part
 use partial core corrections
 no Harris-corrections to forces
 use gradient corrections
 use of overlap-Matrix (Vanderbilt PP)
 Gauss-broadening in eV      SIGMA  =   0.05


--------------------------------------------------------------------------------------------------------


  energy-cutoff  :      600.00
  volume of cell :     1519.82
      direct lattice vectors                 reciprocal lattice vectors
     8.440984654  0.000000000  0.000000000     0.118469591  0.000000000  0.000000000
     0.000000000  8.440984654  0.000000000     0.000000000  0.118469591  0.000000000
     0.000000000  0.000000000 21.330738491     0.000000000  0.000000000  0.046880702

  length of vectors
     8.440984654  8.440984654 21.330738491     0.118469591  0.118469591  0.046880702



 k-points in units of 2pi/SCALE and weight: pymatgen v2020.8.13 with grid density =
   0.00000000  0.00000000  0.00000000       0.250
   0.05923480  0.00000000  0.00000000       0.500
   0.05923480  0.05923480  0.00000000       0.250

 k-points in reciprocal lattice and weights: pymatgen v2020.8.13 with grid density =
   0.00000000  0.00000000  0.00000000       0.250
   0.50000000  0.00000000  0.00000000       0.500
   0.50000000  0.50000000  0.00000000       0.250

 position of ions in fractional coordinates (direct lattice)
   0.50000000  0.50000000  0.76505380
   0.50000000  0.50000000  0.81881752
   0.00000000  0.75000000  0.35160527
   0.25000000  0.00000000  0.35160527
   0.00000000  0.00000000  0.45053509
   0.25000000  0.75000000  0.45053509
   0.00000000  0.74993927  0.55008324
   0.25006073  0.00000000  0.55008324
   0.00000000  0.00000000  0.64874531
   0.24985833  0.75014167  0.64856955
   0.00000000  0.25000000  0.35160527
   0.25000000  0.50000000  0.35160527
   0.00000000  0.50000000  0.45053509
   0.25000000  0.25000000  0.45053509
   0.00000000  0.25006073  0.55008324
   0.25037838  0.50000000  0.55021952
   0.00000000  0.50000000  0.64861528
   0.24985833  0.24985833  0.64856955
   0.50000000  0.75000000  0.35160527
   0.75000000  0.00000000  0.35160527
   0.50000000  0.00000000  0.45053509
   0.75000000  0.75000000  0.45053509
   0.50000000  0.74962162  0.55021952
   0.74993927  0.00000000  0.55008324
   0.50000000  0.00000000  0.64861528
   0.75014167  0.75014167  0.64856955
   0.50000000  0.25000000  0.35160527
   0.75000000  0.50000000  0.35160527
   0.50000000  0.50000000  0.45053509
   0.75000000  0.25000000  0.45053509
   0.50000000  0.25037838  0.55021952
   0.74962162  0.50000000  0.55021952
   0.50000000  0.50000000  0.65061696
   0.75014167  0.24985833  0.64856955
   0.00000000  0.75000000  0.45053509
   0.25000000  0.00000000  0.45053509
   0.00000000  0.00000000  0.35160527
   0.25000000  0.75000000  0.35160527
   0.00000000  0.75021853  0.65097926
   0.24978147  0.00000000  0.65097926
   0.00000000  0.00000000  0.54980989
   0.24994577  0.75005423  0.54985911
   0.00000000  0.25000000  0.45053509
   0.25000000  0.50000000  0.45053509
   0.00000000  0.50000000  0.35160527
   0.25000000  0.25000000  0.35160527
   0.00000000  0.24978147  0.65097926
   0.24882271  0.50000000  0.65088287
   0.00000000  0.50000000  0.54976267
   0.24994577  0.24994577  0.54985911
   0.50000000  0.75000000  0.45053509
   0.75000000  0.00000000  0.45053509
   0.50000000  0.00000000  0.35160527
   0.75000000  0.75000000  0.35160527
   0.50000000  0.75117729  0.65088287
   0.75021853  0.00000000  0.65097926
   0.50000000  0.00000000  0.54976267
   0.75005423  0.75005423  0.54985911
   0.50000000  0.25000000  0.45053509
   0.75000000  0.50000000  0.45053509
   0.50000000  0.50000000  0.35160527
   0.75000000  0.25000000  0.35160527
   0.50000000  0.24882271  0.65088287
   0.75117729  0.50000000  0.65088287
   0.50000000  0.50000000  0.55023136
   0.75005423  0.24994577  0.54985911

 position of ions in cartesian coordinates  (Angst):
   4.22049233  4.22049233 16.31916259
   4.22049233  4.22049233 17.46598241
   0.00000000  6.33073849  7.50000000
   2.11024616  0.00000000  7.50000000
   0.00000000  0.00000000  9.61024616
   2.11024616  6.33073849  9.61024616
   0.00000000  6.33022585 11.73368172
   2.11075880  0.00000000 11.73368172
   0.00000000  0.00000000 13.83821654
   2.10905031  6.33193435 13.83446740
   0.00000000  2.11024616  7.50000000
   2.11024616  4.22049233  7.50000000
   0.00000000  4.22049233  9.61024616
   2.11024616  2.11024616  9.61024616
   0.00000000  2.11075880 11.73368172
   2.11344006  4.22049233 11.73658877
   0.00000000  4.22049233 13.83544293
   2.10905031  2.10905031 13.83446740
   4.22049233  6.33073849  7.50000000
   6.33073849  0.00000000  7.50000000
   4.22049233  0.00000000  9.61024616
   6.33073849  6.33073849  9.61024616
   4.22049233  6.32754460 11.73658877
   6.33022585  0.00000000 11.73368172
   4.22049233  0.00000000 13.83544293
   6.33193435  6.33193435 13.83446740
   4.22049233  2.11024616  7.50000000
   6.33073849  4.22049233  7.50000000
   4.22049233  4.22049233  9.61024616
   6.33073849  2.11024616  9.61024616
   4.22049233  2.11344006 11.73658877
   6.32754460  4.22049233 11.73658877
   4.22049233  4.22049233 13.87814023
   6.33193435  2.10905031 13.83446740
   0.00000000  6.33073849  9.61024616
   2.11024616  0.00000000  9.61024616
   0.00000000  0.00000000  7.50000000
   2.11024616  6.33073849  7.50000000
   0.00000000  6.33258312 13.88586825
   2.10840153  0.00000000 13.88586825
   0.00000000  0.00000000 11.72785099
   2.10978841  6.33119624 11.72890095
   0.00000000  2.11024616  9.61024616
   2.11024616  4.22049233  9.61024616
   0.00000000  4.22049233  7.50000000
   2.11024616  2.11024616  7.50000000
   0.00000000  2.10840153 13.88586825
   2.10030867  4.22049233 13.88381232
   0.00000000  4.22049233 11.72684365
   2.10978841  2.10978841 11.72890095
   4.22049233  6.33073849  9.61024616
   6.33073849  0.00000000  9.61024616
   4.22049233  0.00000000  7.50000000
   6.33073849  6.33073849  7.50000000
   4.22049233  6.34067598 13.88381232
   6.33258312  0.00000000 13.88586825
   4.22049233  0.00000000 11.72684365
   6.33119624  6.33119624 11.72890095
   4.22049233  2.11024616  9.61024616
   6.33073849  4.22049233  9.61024616
   4.22049233  4.22049233  7.50000000
   6.33073849  2.11024616  7.50000000
   4.22049233  2.10030867 13.88381232
   6.34067598  4.22049233 13.88381232
   4.22049233  4.22049233 11.73684118
   6.33119624  2.10978841 11.72890095



--------------------------------------------------------------------------------------------------------


 k-point   1 :   0.0000 0.0000 0.0000  plane waves:   50745
 k-point   2 :   0.5000 0.0000 0.0000  plane waves:   50798
 k-point   3 :   0.5000 0.5000 0.0000  plane waves:   50752

 maximum and minimum number of plane-waves per node :     25438    25340

 maximum number of plane-waves:     50798
 maximum index in each direction:
   IXMAX=   16   IYMAX=   16   IZMAX=   42
   IXMIN=  -17   IYMIN=  -17   IZMIN=  -42


 parallel 3D FFT for wavefunctions:
    minimum data exchange during FFTs selected (reduces bandwidth)
 parallel 3D FFT for charge:
    minimum data exchange during FFTs selected (reduces bandwidth)


 total amount of memory used by VASP MPI-rank0   132524. kBytes
=======================================================================

   base      :      30000. kBytes
   nonl-proj :      58834. kBytes
   fftplans  :      14615. kBytes
   grid      :      21323. kBytes
   one-center:        267. kBytes
   wavefun   :       7485. kBytes

     INWAV:  cpu time      0.0000: real time      0.0000
 Broyden mixing: mesh for mixing (old mesh)
   NGX = 33   NGY = 33   NGZ = 85
  (NGX  =140   NGY  =140   NGZ  =360)
  gives a total of  92565 points

 initial charge density was supplied:
 charge density of overlapping atoms calculated
 number of electron     458.0000000 magnetization
 keeping initial charge density in first step


--------------------------------------------------------------------------------------------------------


 Maximum index for augmentation-charges          608 (set IRDMAX)


--------------------------------------------------------------------------------------------------------


 First call to EWALD:  gamma=   0.154
 Maximum number of real-space cells 4x 4x 2
 Maximum number of reciprocal cells 2x 2x 5

    FEWALD:  cpu time      0.0014: real time      0.0014


--------------------------------------- Iteration      1(   1)  ---------------------------------------


    POTLOK:  cpu time      0.1090: real time      0.1093
    SETDIJ:  cpu time      0.0837: real time      0.0839
    TRIAL :  cpu time      3.2947: real time      3.3081
    CORREC:  cpu time      0.0003: real time      0.0003
    --------------------------------------------
      LOOP:  cpu time      3.4914: real time      3.5063

 eigenvalue-minimisations  :  2280
 total energy-change (2. order) : 0.3416393E+04  (-0.3130006E+05)
 number of electron     458.0000000 magnetization
 augmentation part      458.0000000 magnetization

 DIPCOR: dipole corrections for dipol
 direction  3 min pos     1,
 dipolmoment           0.000000      0.000000     -0.000256 electrons x Angstroem
 Tr[quadrupol]     -6318.706890

 energy correction for charged system         0.000000 eV
 dipol+quadrupol energy correction           -0.000000 eV
 added-field ion interaction          0.002074 eV  (added to PSCEN)


 Free energy of the ion-electron system (eV)
  ---------------------------------------------------
  alpha Z        PSCENC =       907.96617802
  Ewald energy   TEWEN  =    137143.22463369
  -Hartree energ DENC   =   -173242.07343078
  -exchange      EXHF   =         0.00000000
  -V(xc)+E(xc)   XCENC  =      1789.20512428
  PAW double counting   =     32310.01086261   -36145.30683839
  entropy T*S    EENTRO =        -0.01322500
  eigenvalues    EBANDS =     -7576.50954240
  atomic energy  EATOM  =     48229.88884101
  ---------------------------------------------------
  free energy    TOTEN  =      3416.39260303 eV

  energy without entropy =     3416.40582803  energy(sigma->0) =     3416.39921553


--------------------------------------------------------------------------------------------------------




--------------------------------------- Iteration      1(   2)  ---------------------------------------


    TRIAL :  cpu time      3.2109: real time      3.2243
    CORREC:  cpu time      0.0001: real time      0.0001
    --------------------------------------------
      LOOP:  cpu time      3.2120: real time      3.2286

 eigenvalue-minimisations  :  2280
 total energy-change (2. order) :-0.3662219E+04  (-0.3649418E+04)
 number of electron     458.0000000 magnetization
 augmentation part      458.0000000 magnetization

 DIPCOR: dipole corrections for dipol
 direction  3 min pos     1,
 dipolmoment           0.000000      0.000000     -0.000256 electrons x Angstroem
 Tr[quadrupol]     -6318.706890

 energy correction for charged system         0.000000 eV
 dipol+quadrupol energy correction           -0.000000 eV
 added-field ion interaction          0.002074 eV  (added to PSCEN)


 Free energy of the ion-electron system (eV)
  ---------------------------------------------------
  alpha Z        PSCENC =       907.96617802
  Ewald energy   TEWEN  =    137143.22463369
  -Hartree energ DENC   =   -173242.07343078
  -exchange      EXHF   =         0.00000000
  -V(xc)+E(xc)   XCENC  =      1789.20512428
  PAW double counting   =     32310.01086261   -36145.30683839
  entropy T*S    EENTRO =        -0.00000000
  eigenvalues    EBANDS =    -11238.74225060
  atomic energy  EATOM  =     48229.88884101
  ---------------------------------------------------
  free energy    TOTEN  =      -245.82688016 eV

  energy without entropy =     -245.82688016  energy(sigma->0) =     -245.82688016


--------------------------------------------------------------------------------------------------------




--------------------------------------- Iteration      1(   3)  ---------------------------------------


    TRIAL :  cpu time      3.5203: real time      3.5357
    CORREC:  cpu time      0.0001: real time      0.0001
    --------------------------------------------
      LOOP:  cpu time      3.5206: real time      3.5360

 eigenvalue-minimisations  :  2432
 total energy-change (2. order) :-0.2032142E+03  (-0.2029346E+03)
 number of electron     458.0000000 magnetization
 augmentation part      458.0000000 magnetization

 DIPCOR: dipole corrections for dipol
 direction  3 min pos     1,
 dipolmoment           0.000000      0.000000     -0.000256 electrons x Angstroem
 Tr[quadrupol]     -6318.706890

 energy correction for charged system         0.000000 eV
 dipol+quadrupol energy correction           -0.000000 eV
 added-field ion interaction          0.002074 eV  (added to PSCEN)


 Free energy of the ion-electron system (eV)
  ---------------------------------------------------
  alpha Z        PSCENC =       907.96617802
  Ewald energy   TEWEN  =    137143.22463369
  -Hartree energ DENC   =   -173242.07343078
  -exchange      EXHF   =         0.00000000
  -V(xc)+E(xc)   XCENC  =      1789.20512428
  PAW double counting   =     32310.01086261   -36145.30683839
  entropy T*S    EENTRO =        -0.00000000
  eigenvalues    EBANDS =    -11441.95649968
  atomic energy  EATOM  =     48229.88884101
  ---------------------------------------------------
  free energy    TOTEN  =      -449.04112925 eV

  energy without entropy =     -449.04112925  energy(sigma->0) =     -449.04112925


--------------------------------------------------------------------------------------------------------




--------------------------------------- Iteration      1(   4)  ---------------------------------------


    TRIAL :  cpu time      3.6367: real time      3.6514
    CORREC:  cpu time      0.0001: real time      0.0001
    --------------------------------------------
      LOOP:  cpu time      3.6370: real time      3.6517

 eigenvalue-minimisations  :  2432
 total energy-change (2. order) :-0.1769617E+01  (-0.1769004E+01)
 number of electron     458.0000000 magnetization
 augmentation part      458.0000000 magnetization

 DIPCOR: dipole corrections for dipol
 direction  3 min pos     1,
 dipolmoment           0.000000      0.000000     -0.000256 electrons x Angstroem
 Tr[quadrupol]     -6318.706890

 energy correction for charged system         0.000000 eV
 dipol+quadrupol energy correction           -0.000000 eV
 added-field ion interaction          0.002074 eV  (added to PSCEN)


 Free energy of the ion-electron system (eV)
  ---------------------------------------------------
  alpha Z        PSCENC =       907.96617802
  Ewald energy   TEWEN  =    137143.22463369
  -Hartree energ DENC   =   -173242.07343078
  -exchange      EXHF   =         0.00000000
  -V(xc)+E(xc)   XCENC  =      1789.20512428
  PAW double counting   =     32310.01086261   -36145.30683839
  entropy T*S    EENTRO =        -0.00000000
  eigenvalues    EBANDS =    -11443.72611686
  atomic energy  EATOM  =     48229.88884101
  ---------------------------------------------------
  free energy    TOTEN  =      -450.81074642 eV

  energy without entropy =     -450.81074642  energy(sigma->0) =     -450.81074642


--------------------------------------------------------------------------------------------------------




--------------------------------------- Iteration      1(   5)  ---------------------------------------


    TRIAL :  cpu time      2.9738: real time      2.9861
    CORREC:  cpu time      0.0001: real time      0.0001
    CHARGE:  cpu time      0.1345: real time      0.1350
    --------------------------------------------
      LOOP:  cpu time      3.1086: real time      3.1215

 eigenvalue-minimisations  :  2128
 total energy-change (2. order) :-0.2475116E-01  (-0.2475057E-01)
 number of electron     457.9999544 magnetization
 augmentation part      159.5876702 magnetization

 DIPCOR: dipole corrections for dipol
 direction  3 min pos     1,
 dipolmoment           0.000000      0.000000     -0.000256 electrons x Angstroem
 Tr[quadrupol]     -6318.706890

 energy correction for charged system         0.000000 eV
 dipol+quadrupol energy correction           -0.000000 eV
 added-field ion interaction          0.002074 eV  (added to PSCEN)


 Free energy of the ion-electron system (eV)
  ---------------------------------------------------
  alpha Z        PSCENC =       907.96617802
  Ewald energy   TEWEN  =    137143.22463369
  -Hartree energ DENC   =   -173242.07343078
  -exchange      EXHF   =         0.00000000
  -V(xc)+E(xc)   XCENC  =      1789.20512428
  PAW double counting   =     32310.01086261   -36145.30683839
  entropy T*S    EENTRO =        -0.00000000
  eigenvalues    EBANDS =    -11443.75086802
  atomic energy  EATOM  =     48229.88884101
  ---------------------------------------------------
  free energy    TOTEN  =      -450.83549758 eV

  energy without entropy =     -450.83549758  energy(sigma->0) =     -450.83549758


--------------------------------------------------------------------------------------------------------




--------------------------------------- Iteration      1(   6)  ---------------------------------------


    POTLOK:  cpu time      0.0655: real time      0.0658
    SETDIJ:  cpu time      0.0843: real time      0.0845
    TRIAL :  cpu time      0.9288: real time      0.9329
    CORREC:  cpu time      0.5722: real time      0.5741
    CHARGE:  cpu time      0.1275: real time      0.1280
    --------------------------------------------
      LOOP:  cpu time      1.7792: real time      1.7860

 eigenvalue-minimisations  :     0
 total energy-change (2. order) : 0.1741688E+03  (-0.9682297E+02)
 number of electron     457.9999550 magnetization
 augmentation part      156.6127351 magnetization

 DIPCOR: dipole corrections for dipol
 direction  3 min pos     1,
 dipolmoment           0.000000      0.000000      0.153147 electrons x Angstroem
 Tr[quadrupol]     -6352.730415

 energy correction for charged system         0.000000 eV
 dipol+quadrupol energy correction           -0.001396 eV
 added-field ion interaction         -1.240055 eV  (added to PSCEN)


 Free energy of the ion-electron system (eV)
  ---------------------------------------------------
  alpha Z        PSCENC =       904.56468675
  Ewald energy   TEWEN  =    137143.22463369
  -Hartree energ DENC   =   -177114.17133894
  -exchange      EXHF   =         0.00000000
  -V(xc)+E(xc)   XCENC  =      1914.79480013
  PAW double counting   =     36988.36579432   -40778.27200400
  entropy T*S    EENTRO =        -0.00000000
  eigenvalues    EBANDS =     -7565.06207246
  atomic energy  EATOM  =     48229.88884101
  ---------------------------------------------------
  free energy    TOTEN  =      -276.66665949 eV

  energy without entropy =     -276.66665949  energy(sigma->0) =     -276.66665949


--------------------------------------------------------------------------------------------------------




--------------------------------------- Iteration      1(   7)  ---------------------------------------


    POTLOK:  cpu time      0.0604: real time      0.0605
    SETDIJ:  cpu time      0.0832: real time      0.0834
    TRIAL :  cpu time      0.9063: real time      0.9104
    CORREC:  cpu time      0.5524: real time      0.5542
    CHARGE:  cpu time      0.1276: real time      0.1280
    --------------------------------------------
      LOOP:  cpu time      1.7310: real time      1.7377

 eigenvalue-minimisations  :     0
 total energy-change (2. order) :-0.9746344E+02  (-0.6480703E+01)
 number of electron     457.9999555 magnetization
 augmentation part      154.8655028 magnetization

 DIPCOR: dipole corrections for dipol
 direction  3 min pos     1,
 dipolmoment           0.000000      0.000000      0.160635 electrons x Angstroem
 Tr[quadrupol]     -6360.006717

 energy correction for charged system         0.000000 eV
 dipol+quadrupol energy correction           -0.001536 eV
 added-field ion interaction         -1.300687 eV  (added to PSCEN)


 Free energy of the ion-electron system (eV)
  ---------------------------------------------------
  alpha Z        PSCENC =       906.35933637
  Ewald energy   TEWEN  =    137143.22463369
  -Hartree energ DENC   =   -175220.23779939
  -exchange      EXHF   =         0.00000000
  -V(xc)+E(xc)   XCENC  =      1845.45640668
  PAW double counting   =     35818.10521559   -39677.66173248
  entropy T*S    EENTRO =        -0.00000000
  eigenvalues    EBANDS =     -9419.26499864
  atomic energy  EATOM  =     48229.88884101
  ---------------------------------------------------
  free energy    TOTEN  =      -374.13009715 eV

  energy without entropy =     -374.13009715  energy(sigma->0) =     -374.13009715


--------------------------------------------------------------------------------------------------------




--------------------------------------- Iteration      1(   8)  ---------------------------------------


    POTLOK:  cpu time      0.0609: real time      0.0611
    SETDIJ:  cpu time      0.0834: real time      0.0836
    TRIAL :  cpu time      0.9060: real time      0.9101
    CORREC:  cpu time      0.5466: real time      0.5484
    CHARGE:  cpu time      0.1260: real time      0.1264
    --------------------------------------------
      LOOP:  cpu time      1.7237: real time      1.7303

 eigenvalue-minimisations  :     0
 total energy-change (2. order) :-0.6496051E+01  (-0.3817917E+01)
 number of electron     457.9999554 magnetization
 augmentation part      154.9886717 magnetization

 DIPCOR: dipole corrections for dipol
 direction  3 min pos     1,
 dipolmoment           0.000000      0.000000      0.117636 electrons x Angstroem
 Tr[quadrupol]     -6358.866802

 energy correction for charged system         0.000000 eV
 dipol+quadrupol energy correction           -0.000824 eV
 added-field ion interaction         -0.952514 eV  (added to PSCEN)


 Free energy of the ion-electron system (eV)
  ---------------------------------------------------
  alpha Z        PSCENC =       906.75331416
  Ewald energy   TEWEN  =    137143.22463369
  -Hartree energ DENC   =   -175125.36205167
  -exchange      EXHF   =         0.00000000
  -V(xc)+E(xc)   XCENC  =      1836.17839548
  PAW double counting   =     35747.63924237   -39541.29312318
  entropy T*S    EENTRO =        -0.00000000
  eigenvalues    EBANDS =     -9577.65539972
  atomic energy  EATOM  =     48229.88884101
  ---------------------------------------------------
  free energy    TOTEN  =      -380.62614784 eV

  energy without entropy =     -380.62614784  energy(sigma->0) =     -380.62614784


--------------------------------------------------------------------------------------------------------




--------------------------------------- Iteration      1(   9)  ---------------------------------------


    POTLOK:  cpu time      0.0590: real time      0.0592
    SETDIJ:  cpu time      0.0841: real time      0.0843
    TRIAL :  cpu time      0.9003: real time      0.9044
    CORREC:  cpu time      0.5409: real time      0.5426
    CHARGE:  cpu time      0.1255: real time      0.1260
    --------------------------------------------
      LOOP:  cpu time      1.7108: real time      1.7176

 eigenvalue-minimisations  :     0
 total energy-change (2. order) :-0.3767786E+01  (-0.1760068E+01)
 number of electron     457.9999554 magnetization
 augmentation part      154.9815749 magnetization

 DIPCOR: dipole corrections for dipol
 direction  3 min pos     1,
 dipolmoment           0.000000      0.000000      0.146980 electrons x Angstroem
 Tr[quadrupol]     -6352.878368

 energy correction for charged system         0.000000 eV
 dipol+quadrupol energy correction           -0.001286 eV
 added-field ion interaction         -1.190118 eV  (added to PSCEN)


 Free energy of the ion-electron system (eV)
  ---------------------------------------------------
  alpha Z        PSCENC =       907.12203412
  Ewald energy   TEWEN  =    137143.22463369
  -Hartree energ DENC   =   -175032.42375830
  -exchange      EXHF   =         0.00000000
  -V(xc)+E(xc)   XCENC  =      1835.96256983
  PAW double counting   =     35705.20225979   -39531.53439379
  entropy T*S    EENTRO =        -0.00000000
  eigenvalues    EBANDS =     -9641.83612029
  atomic energy  EATOM  =     48229.88884101
  ---------------------------------------------------
  free energy    TOTEN  =      -384.39393395 eV

  energy without entropy =     -384.39393395  energy(sigma->0) =     -384.39393395


--------------------------------------------------------------------------------------------------------




--------------------------------------- Iteration      1(  10)  ---------------------------------------


    POTLOK:  cpu time      0.0582: real time      0.0584
    SETDIJ:  cpu time      0.0833: real time      0.0834
    TRIAL :  cpu time      0.8949: real time      0.8989
    CORREC:  cpu time      0.5408: real time      0.5425
    CHARGE:  cpu time      0.1260: real time      0.1265
    --------------------------------------------
      LOOP:  cpu time      1.7041: real time      1.7106

 eigenvalue-minimisations  :     0
 total energy-change (2. order) :-0.1767377E+01  (-0.6135245E+00)
 number of electron     457.9999554 magnetization
 augmentation part      154.9103403 magnetization

 DIPCOR: dipole corrections for dipol
 direction  3 min pos     1,
 dipolmoment           0.000000      0.000000      0.175819 electrons x Angstroem
 Tr[quadrupol]     -6350.976442

 energy correction for charged system         0.000000 eV
 dipol+quadrupol energy correction           -0.001840 eV
 added-field ion interaction         -1.423638 eV  (added to PSCEN)


 Free energy of the ion-electron system (eV)
  ---------------------------------------------------
  alpha Z        PSCENC =       906.80103056
  Ewald energy   TEWEN  =    137143.22463369
  -Hartree energ DENC   =   -174868.22299551
  -exchange      EXHF   =         0.00000000
  -V(xc)+E(xc)   XCENC  =      1834.30557976
  PAW double counting   =     35595.84938510   -39430.00368058
  entropy T*S    EENTRO =        -0.00000000
  eigenvalues    EBANDS =     -9798.00410469
  atomic energy  EATOM  =     48229.88884101
  ---------------------------------------------------
  free energy    TOTEN  =      -386.16131065 eV

  energy without entropy =     -386.16131065  energy(sigma->0) =     -386.16131065


--------------------------------------------------------------------------------------------------------




--------------------------------------- Iteration      1(  11)  ---------------------------------------


    POTLOK:  cpu time      0.0576: real time      0.0578
    SETDIJ:  cpu time      0.0831: real time      0.0833
    TRIAL :  cpu time      0.8940: real time      0.8981
    CORREC:  cpu time      0.5344: real time      0.5363
    CHARGE:  cpu time      0.1255: real time      0.1259
    --------------------------------------------
      LOOP:  cpu time      1.6956: real time      1.7023

 eigenvalue-minimisations  :     0
 total energy-change (2. order) :-0.6155503E+00  (-0.2104694E+00)
 number of electron     457.9999554 magnetization
 augmentation part      154.9846915 magnetization

 DIPCOR: dipole corrections for dipol
 direction  3 min pos     1,
 dipolmoment           0.000000      0.000000      0.154193 electrons x Angstroem
 Tr[quadrupol]     -6351.644146

 energy correction for charged system         0.000000 eV
 dipol+quadrupol energy correction           -0.001415 eV
 added-field ion interaction         -1.248530 eV  (added to PSCEN)


 Free energy of the ion-electron system (eV)
  ---------------------------------------------------
  alpha Z        PSCENC =       906.57628854
  Ewald energy   TEWEN  =    137143.22463369
  -Hartree energ DENC   =   -174793.74566055
  -exchange      EXHF   =         0.00000000
  -V(xc)+E(xc)   XCENC  =      1833.16886689
  PAW double counting   =     35525.91520324   -39352.01497508
  entropy T*S    EENTRO =        -0.00000000
  eigenvalues    EBANDS =     -9879.79005865
  atomic energy  EATOM  =     48229.88884101
  ---------------------------------------------------
  free energy    TOTEN  =      -386.77686090 eV

  energy without entropy =     -386.77686090  energy(sigma->0) =     -386.77686090


--------------------------------------------------------------------------------------------------------




--------------------------------------- Iteration      1(  12)  ---------------------------------------


    POTLOK:  cpu time      0.0573: real time      0.0575
    SETDIJ:  cpu time      0.0826: real time      0.0828
    TRIAL :  cpu time      0.8972: real time      0.9013
    CORREC:  cpu time      0.5346: real time      0.5364
    CHARGE:  cpu time      0.1253: real time      0.1258
    --------------------------------------------
      LOOP:  cpu time      1.6985: real time      1.7052

 eigenvalue-minimisations  :     0
 total energy-change (2. order) :-0.2104667E+00  (-0.7213913E-01)
 number of electron     457.9999554 magnetization
 augmentation part      155.0897500 magnetization

 DIPCOR: dipole corrections for dipol
 direction  3 min pos     1,
 dipolmoment           0.000000      0.000000      0.138244 electrons x Angstroem
 Tr[quadrupol]     -6352.275299

 energy correction for charged system         0.000000 eV
 dipol+quadrupol energy correction           -0.001138 eV
 added-field ion interaction         -1.119388 eV  (added to PSCEN)


 Free energy of the ion-electron system (eV)
  ---------------------------------------------------
  alpha Z        PSCENC =       906.71016056
  Ewald energy   TEWEN  =    137143.22463369
  -Hartree energ DENC   =   -174808.50491661
  -exchange      EXHF   =         0.00000000
  -V(xc)+E(xc)   XCENC  =      1833.30017342
  PAW double counting   =     35507.30027538   -39331.29317780
  entropy T*S    EENTRO =        -0.00000000
  eigenvalues    EBANDS =     -9867.61331729
  atomic energy  EATOM  =     48229.88884101
  ---------------------------------------------------
  free energy    TOTEN  =      -386.98732764 eV

  energy without entropy =     -386.98732764  energy(sigma->0) =     -386.98732764


--------------------------------------------------------------------------------------------------------




--------------------------------------- Iteration      1(  13)  ---------------------------------------


    POTLOK:  cpu time      0.0585: real time      0.0587
    SETDIJ:  cpu time      0.0836: real time      0.0838
    TRIAL :  cpu time      0.8924: real time      0.8964
    CORREC:  cpu time      0.5312: real time      0.5330
    CHARGE:  cpu time      0.1253: real time      0.1258
    --------------------------------------------
      LOOP:  cpu time      1.6921: real time      1.6988

 eigenvalue-minimisations  :     0
 total energy-change (2. order) :-0.7214679E-01  (-0.3120216E-01)
 number of electron     457.9999554 magnetization
 augmentation part      155.1368372 magnetization

 DIPCOR: dipole corrections for dipol
 direction  3 min pos     1,
 dipolmoment           0.000000      0.000000      0.132984 electrons x Angstroem
 Tr[quadrupol]     -6352.648357

 energy correction for charged system         0.000000 eV
 dipol+quadrupol energy correction           -0.001053 eV
 added-field ion interaction         -1.076795 eV  (added to PSCEN)


 Free energy of the ion-electron system (eV)
  ---------------------------------------------------
  alpha Z        PSCENC =       906.84812741
  Ewald energy   TEWEN  =    137143.22463369
  -Hartree energ DENC   =   -174834.54767057
  -exchange      EXHF   =         0.00000000
  -V(xc)+E(xc)   XCENC  =      1833.57154732
  PAW double counting   =     35506.44905912   -39333.20598813
  entropy T*S    EENTRO =        -0.00000000
  eigenvalues    EBANDS =     -9839.28802430
  atomic energy  EATOM  =     48229.88884101
  ---------------------------------------------------
  free energy    TOTEN  =      -387.05947443 eV

  energy without entropy =     -387.05947443  energy(sigma->0) =     -387.05947443


--------------------------------------------------------------------------------------------------------




--------------------------------------- Iteration      1(  14)  ---------------------------------------


    POTLOK:  cpu time      0.0586: real time      0.0588
    SETDIJ:  cpu time      0.0839: real time      0.0841
    TRIAL :  cpu time      0.8916: real time      0.8956
    CORREC:  cpu time      0.5354: real time      0.5372
    CHARGE:  cpu time      0.1258: real time      0.1262
    --------------------------------------------
      LOOP:  cpu time      1.6965: real time      1.7031

 eigenvalue-minimisations  :     0
 total energy-change (2. order) :-0.3121899E-01  (-0.1409013E-01)
 number of electron     457.9999554 magnetization
 augmentation part      155.1271302 magnetization

 DIPCOR: dipole corrections for dipol
 direction  3 min pos     1,
 dipolmoment           0.000000      0.000000      0.131671 electrons x Angstroem
 Tr[quadrupol]     -6352.924348

 energy correction for charged system         0.000000 eV
 dipol+quadrupol energy correction           -0.001032 eV
 added-field ion interaction         -1.066164 eV  (added to PSCEN)


 Free energy of the ion-electron system (eV)
  ---------------------------------------------------
  alpha Z        PSCENC =       906.89234488
  Ewald energy   TEWEN  =    137143.22463369
  -Hartree energ DENC   =   -174847.57340795
  -exchange      EXHF   =         0.00000000
  -V(xc)+E(xc)   XCENC  =      1833.62166347
  PAW double counting   =     35508.50721756   -39337.00921626
  entropy T*S    EENTRO =        -0.00000000
  eigenvalues    EBANDS =     -9824.64276983
  atomic energy  EATOM  =     48229.88884101
  ---------------------------------------------------
  free energy    TOTEN  =      -387.09069342 eV

  energy without entropy =     -387.09069342  energy(sigma->0) =     -387.09069342


--------------------------------------------------------------------------------------------------------




--------------------------------------- Iteration      1(  15)  ---------------------------------------


    POTLOK:  cpu time      0.0583: real time      0.0585
    SETDIJ:  cpu time      0.0832: real time      0.0833
    TRIAL :  cpu time      0.8968: real time      0.9008
    CORREC:  cpu time      0.5371: real time      0.5388
    CHARGE:  cpu time      0.1259: real time      0.1264
    --------------------------------------------
      LOOP:  cpu time      1.7022: real time      1.7088

 eigenvalue-minimisations  :     0
 total energy-change (2. order) :-0.1410081E-01  (-0.6325438E-02)
 number of electron     457.9999554 magnetization
 augmentation part      155.1108508 magnetization

 DIPCOR: dipole corrections for dipol
 direction  3 min pos     1,
 dipolmoment           0.000000      0.000000      0.131065 electrons x Angstroem
 Tr[quadrupol]     -6353.153459

 energy correction for charged system         0.000000 eV
 dipol+quadrupol energy correction           -0.001023 eV
 added-field ion interaction         -1.061259 eV  (added to PSCEN)


 Free energy of the ion-electron system (eV)
  ---------------------------------------------------
  alpha Z        PSCENC =       906.89736010
  Ewald energy   TEWEN  =    137143.22463369
  -Hartree energ DENC   =   -174855.01978205
  -exchange      EXHF   =         0.00000000
  -V(xc)+E(xc)   XCENC  =      1833.64438851
  PAW double counting   =     35512.70002040   -39340.55441774
  entropy T*S    EENTRO =        -0.00000000
  eigenvalues    EBANDS =     -9817.88583816
  atomic energy  EATOM  =     48229.88884101
  ---------------------------------------------------
  free energy    TOTEN  =      -387.10479423 eV

  energy without entropy =     -387.10479423  energy(sigma->0) =     -387.10479423


--------------------------------------------------------------------------------------------------------




--------------------------------------- Iteration      1(  16)  ---------------------------------------


    POTLOK:  cpu time      0.0586: real time      0.0588
    SETDIJ:  cpu time      0.0833: real time      0.0835
    TRIAL :  cpu time      0.8966: real time      0.9006
    CORREC:  cpu time      0.5316: real time      0.5334
    CHARGE:  cpu time      0.1263: real time      0.1268
    --------------------------------------------
      LOOP:  cpu time      1.6977: real time      1.7043

 eigenvalue-minimisations  :     0
 total energy-change (2. order) :-0.6327461E-02  (-0.2421607E-02)
 number of electron     457.9999554 magnetization
 augmentation part      155.1063060 magnetization

 DIPCOR: dipole corrections for dipol
 direction  3 min pos     1,
 dipolmoment           0.000000      0.000000      0.131994 electrons x Angstroem
 Tr[quadrupol]     -6353.283159

 energy correction for charged system         0.000000 eV
 dipol+quadrupol energy correction           -0.001037 eV
 added-field ion interaction         -1.068781 eV  (added to PSCEN)


 Free energy of the ion-electron system (eV)
  ---------------------------------------------------
  alpha Z        PSCENC =       906.90277308
  Ewald energy   TEWEN  =    137143.22463369
  -Hartree energ DENC   =   -174862.95930274
  -exchange      EXHF   =         0.00000000
  -V(xc)+E(xc)   XCENC  =      1833.73321861
  PAW double counting   =     35517.55771676   -39344.67220476
  entropy T*S    EENTRO =        -0.00000000
  eigenvalues    EBANDS =     -9810.78679735
  atomic energy  EATOM  =     48229.88884101
  ---------------------------------------------------
  free energy    TOTEN  =      -387.11112169 eV

  energy without entropy =     -387.11112169  energy(sigma->0) =     -387.11112169


--------------------------------------------------------------------------------------------------------




--------------------------------------- Iteration      1(  17)  ---------------------------------------


    POTLOK:  cpu time      0.0574: real time      0.0576
    SETDIJ:  cpu time      0.0834: real time      0.0836
    TRIAL :  cpu time      0.8871: real time      0.8912
    CORREC:  cpu time      0.5337: real time      0.5364
    CHARGE:  cpu time      0.1249: real time      0.1254
    --------------------------------------------
      LOOP:  cpu time      1.6870: real time      1.6946

 eigenvalue-minimisations  :     0
 total energy-change (2. order) :-0.2417727E-02  (-0.9288771E-03)
 number of electron     457.9999554 magnetization
 augmentation part      155.1067370 magnetization

 DIPCOR: dipole corrections for dipol
 direction  3 min pos     1,
 dipolmoment           0.000000      0.000000      0.134507 electrons x Angstroem
 Tr[quadrupol]     -6353.304746

 energy correction for charged system         0.000000 eV
 dipol+quadrupol energy correction           -0.001077 eV
 added-field ion interaction         -1.089127 eV  (added to PSCEN)


 Free energy of the ion-electron system (eV)
  ---------------------------------------------------
  alpha Z        PSCENC =       906.89210549
  Ewald energy   TEWEN  =    137143.22463369
  -Hartree energ DENC   =   -174867.20753692
  -exchange      EXHF   =         0.00000000
  -V(xc)+E(xc)   XCENC  =      1833.78136466
  PAW double counting   =     35520.53107793   -39347.73754659
  entropy T*S    EENTRO =        -0.00000000
  eigenvalues    EBANDS =     -9806.48647869
  atomic energy  EATOM  =     48229.88884101
  ---------------------------------------------------
  free energy    TOTEN  =      -387.11353942 eV

  energy without entropy =     -387.11353942  energy(sigma->0) =     -387.11353942


--------------------------------------------------------------------------------------------------------




--------------------------------------- Iteration      1(  18)  ---------------------------------------


    POTLOK:  cpu time      0.0572: real time      0.0575
    SETDIJ:  cpu time      0.0844: real time      0.0846
    TRIAL :  cpu time      0.8914: real time      0.8954
    CORREC:  cpu time      0.5311: real time      0.5330
    CHARGE:  cpu time      0.1255: real time      0.1259
    --------------------------------------------
      LOOP:  cpu time      1.6909: real time      1.6975

 eigenvalue-minimisations  :     0
 total energy-change (2. order) :-0.9264877E-03  (-0.3690586E-03)
 number of electron     457.9999554 magnetization
 augmentation part      155.1075874 magnetization

 DIPCOR: dipole corrections for dipol
 direction  3 min pos     1,
 dipolmoment           0.000000      0.000000      0.136456 electrons x Angstroem
 Tr[quadrupol]     -6353.275843

 energy correction for charged system         0.000000 eV
 dipol+quadrupol energy correction           -0.001109 eV
 added-field ion interaction         -1.104907 eV  (added to PSCEN)


 Free energy of the ion-electron system (eV)
  ---------------------------------------------------
  alpha Z        PSCENC =       906.86862034
  Ewald energy   TEWEN  =    137143.22463369
  -Hartree energ DENC   =   -174867.58322412
  -exchange      EXHF   =         0.00000000
  -V(xc)+E(xc)   XCENC  =      1833.79666407
  PAW double counting   =     35522.71187899   -39350.08051954
  entropy T*S    EENTRO =        -0.00000000
  eigenvalues    EBANDS =     -9805.94136035
  atomic energy  EATOM  =     48229.88884101
  ---------------------------------------------------
  free energy    TOTEN  =      -387.11446591 eV

  energy without entropy =     -387.11446591  energy(sigma->0) =     -387.11446591


--------------------------------------------------------------------------------------------------------




--------------------------------------- Iteration      1(  19)  ---------------------------------------


    POTLOK:  cpu time      0.0581: real time      0.0583
    SETDIJ:  cpu time      0.0836: real time      0.0837
    TRIAL :  cpu time      0.8862: real time      0.8902
    CORREC:  cpu time      0.5290: real time      0.5308
    CHARGE:  cpu time      0.1251: real time      0.1255
    --------------------------------------------
      LOOP:  cpu time      1.6830: real time      1.6896

 eigenvalue-minimisations  :     0
 total energy-change (2. order) :-0.3690136E-03  (-0.1444769E-03)
 number of electron     457.9999554 magnetization
 augmentation part      155.1073881 magnetization

 DIPCOR: dipole corrections for dipol
 direction  3 min pos     1,
 dipolmoment           0.000000      0.000000      0.137058 electrons x Angstroem
 Tr[quadrupol]     -6353.240943

 energy correction for charged system         0.000000 eV
 dipol+quadrupol energy correction           -0.001118 eV
 added-field ion interaction         -1.109778 eV  (added to PSCEN)


 Free energy of the ion-electron system (eV)
  ---------------------------------------------------
  alpha Z        PSCENC =       906.85460945
  Ewald energy   TEWEN  =    137143.22463369
  -Hartree energ DENC   =   -174866.51505411
  -exchange      EXHF   =         0.00000000
  -V(xc)+E(xc)   XCENC  =      1833.81112075
  PAW double counting   =     35524.22639686   -39351.54936649
  entropy T*S    EENTRO =        -0.00000000
  eigenvalues    EBANDS =     -9807.05601608
  atomic energy  EATOM  =     48229.88884101
  ---------------------------------------------------
  free energy    TOTEN  =      -387.11483492 eV

  energy without entropy =     -387.11483492  energy(sigma->0) =     -387.11483492


--------------------------------------------------------------------------------------------------------




--------------------------------------- Iteration      1(  20)  ---------------------------------------


    POTLOK:  cpu time      0.0577: real time      0.0579
    SETDIJ:  cpu time      0.0833: real time      0.0834
    TRIAL :  cpu time      0.8883: real time      0.8923
    CORREC:  cpu time      0.5348: real time      0.5366
    CHARGE:  cpu time      0.1269: real time      0.1274
    --------------------------------------------
      LOOP:  cpu time      1.6918: real time      1.6985

 eigenvalue-minimisations  :     0
 total energy-change (2. order) :-0.1447754E-03  (-0.5714667E-04)
 number of electron     457.9999554 magnetization
 augmentation part      155.1070674 magnetization

 DIPCOR: dipole corrections for dipol
 direction  3 min pos     1,
 dipolmoment           0.000000      0.000000      0.137062 electrons x Angstroem
[...]
    274       7.7370      0.00000
    275       7.7923      0.00000
    276       7.9349      0.00000
    277       7.9585      0.00000
    278       7.9617      0.00000
    279       7.9671      0.00000
    280       7.9807      0.00000
    281       8.0010      0.00000
    282       8.0918      0.00000
    283       8.1075      0.00000
    284       8.1926      0.00000
    285       8.2028      0.00000
    286       8.2480      0.00000
    287       8.3468      0.00000
    288       8.5649      0.00000
    289       8.6352      0.00000
    290       8.6888      0.00000
    291       8.7602      0.00000
    292       8.7623      0.00000
    293       8.8412      0.00000
    294       8.9016      0.00000
    295       8.9648      0.00000
    296       9.0101      0.00000
    297       9.0863      0.00000
    298       9.1089      0.00000
    299       9.1834      0.00000
    300       9.5046      0.00000
    301       9.5277      0.00000
    302       9.5503      0.00000
    303       9.6744      0.00000
    304       9.7667      0.00000


--------------------------------------------------------------------------------------------------------


 soft charge-density along one line, spin component           1
         0         1         2         3         4         5         6         7         8         9
 total charge-density along one line

 pseudopotential strength for first ion, spin component:           1
 10.228  13.602   0.000   0.032   0.000  -0.000  -0.095  -0.000
 13.602  18.088   0.000   0.042   0.000  -0.000  -0.126  -0.000
  0.000   0.000  -4.366  -0.000  -0.000   8.553   0.000   0.000
  0.032   0.042  -0.000  -4.405  -0.000   0.000   8.610   0.000
  0.000   0.000  -0.000  -0.000  -4.366   0.000   0.000   8.553
 -0.000  -0.000   8.553   0.000   0.000 -18.892  -0.000  -0.000
 -0.095  -0.126   0.000   8.610   0.000  -0.000 -18.969  -0.000
 -0.000  -0.000   0.000   0.000   8.553  -0.000  -0.000 -18.892
 total augmentation occupancy for first ion, spin component:           1
  7.283  -3.293   0.000   2.016   0.000   0.000   0.370   0.000
 -3.293   1.874   0.000  -1.540   0.000   0.000  -0.225   0.000
  0.000   0.000   0.838   0.000   0.000   0.059   0.000   0.000
  2.016  -1.540   0.000   2.227  -0.000   0.000   0.210  -0.000
  0.000   0.000   0.000  -0.000   0.838   0.000   0.000   0.059
  0.000   0.000   0.059   0.000   0.000   0.004   0.000   0.000
  0.370  -0.225   0.000   0.210   0.000   0.000   0.029   0.000
  0.000   0.000   0.000  -0.000   0.059   0.000   0.000   0.004


------------------------ aborting loop because EDIFF is reached ----------------------------------------


    FORLOC:  cpu time      0.0031: real time      0.0031
    FORNL :  cpu time      0.3048: real time      0.3064
    STRESS:  cpu time      2.1830: real time      2.1919
    FORCOR:  cpu time      0.0518: real time      0.0520
    OFIELD:  cpu time      0.0001: real time      0.0001

  DFT-D2 method for vdW energy calculation
  -------------------------------------------------------------------

  Parameters of vdW forcefield:
         C6(Jnm^6/mol)     R0(A)
   -----------------------------
   C        1.750          1.452
   O        0.700          1.342
   Mg       0.630          1.243
   O        0.700          1.342

  vdW correction parametrized for the method pbe

  IVDW =   1
  VDW_RADIUS =    50.000 A
  VDW_S6 =     0.750
  VDW_SR =     1.000
  VDW_D =    20.000
  LVDW_EWALD = F

  Number of pair interactions contributing to vdW energy:  768278
  Edisp (eV):   -3.69410
    FORVDW:  cpu time      0.0374: real time      0.0374

  FORCE on cell =-STRESS in cart. coord.  units (eV):
  Direction    XX          YY          ZZ          XY          YZ          ZX
  --------------------------------------------------------------------------------------
  Alpha Z   907.96410   907.96410   907.96410
  Ewald  157644.15472157644.15472************     0.00000     0.00000    -0.00000
  Hartree168052.25362168052.25362************    -0.00000    -0.00000    -0.00000
  E(xc)   -2500.79538 -2500.79538 -2504.71884     0.00000     0.00000     0.00000
  Local  ************************335285.74139     0.00000     0.00000    -0.00000
  n-local -2830.46913 -2831.28431 -2861.93076     0.00000    -0.00000     0.00001
  augment  1054.04337  1054.04337  1044.27481    -0.00000    -0.00000    -0.00000
  Kinetic  7494.11394  7496.71143  7517.80243     0.00001    -0.00002     0.00004
  Fock        0.00000     0.00000     0.00000     0.00000     0.00000     0.00000
  vdW        -5.37858    -5.37858    -4.45354    -0.00000    -0.00000    -0.00000
  -------------------------------------------------------------------------------------
  Total     -24.06136   -24.06136    -0.59028     0.00000     0.00000     0.00000
  in kB     -25.36522   -25.36522    -0.62227     0.00000     0.00000     0.00000
  external pressure =      -17.12 kB  Pullay stress =        0.00 kB


 VOLUME and BASIS-vectors are now :
 -----------------------------------------------------------------------------
  energy-cutoff  :      600.00
  volume of cell :     1519.82
      direct lattice vectors                 reciprocal lattice vectors
     8.440984654  0.000000000  0.000000000     0.118469591  0.000000000  0.000000000
     0.000000000  8.440984654  0.000000000     0.000000000  0.118469591  0.000000000
     0.000000000  0.000000000 21.330738491     0.000000000  0.000000000  0.046880702

  length of vectors
     8.440984654  8.440984654 21.330738491     0.118469591  0.118469591  0.046880702


 FORCES acting on ions:
    Electron-Ion                     Ewald-Force                    Non-Local-Force
 -----------------------------------------------------------------------------------------------
   0.123E-12 0.102E-11 -.837E+03   0.107E-13 0.622E-14 0.811E+03   0.989E-23 0.324E-22 0.268E+02
   0.427E-12 0.369E-11 -.145E+04   -.888E-14 0.222E-15 0.151E+04   0.157E-22 0.159E-23 -.599E+02
   -.456E-13 -.128E+00 0.208E+04   -.132E-12 0.129E+00 -.207E+04   0.139E-21 -.228E-03 -.704E+01
   0.128E+00 -.552E-12 0.208E+04   -.129E+00 0.537E-13 -.207E+04   0.228E-03 0.102E-21 -.704E+01
   -.530E-13 -.386E-12 0.713E+03   -.151E-10 0.151E-10 -.714E+03   0.106E-22 -.200E-23 0.504E+00
   0.472E+00 -.472E+00 0.714E+03   -.467E+00 0.467E+00 -.715E+03   -.264E-02 0.264E-02 0.531E+00
   -.541E-13 -.284E+01 -.643E+03   0.162E-11 0.283E+01 0.643E+03   -.918E-22 0.135E-01 -.164E+00
   0.284E+01 0.168E-13 -.643E+03   -.283E+01 -.144E-11 0.643E+03   -.135E-01 -.530E-22 -.164E+00
   -.403E-13 -.741E-13 -.200E+04   0.419E-12 -.348E-12 0.200E+04   0.728E-22 -.165E-21 0.596E+01
   0.181E+02 -.181E+02 -.198E+04   -.182E+02 0.182E+02 0.198E+04   0.934E-01 -.934E-01 0.605E+01
   -.389E-13 0.128E+00 0.208E+04   -.356E-12 -.129E+00 -.207E+04   -.595E-22 0.228E-03 -.704E+01
   0.124E+00 -.175E-12 0.208E+04   -.121E+00 0.131E-10 -.207E+04   -.182E-02 0.752E-22 -.705E+01
   -.434E-13 0.434E-12 0.714E+03   -.166E-10 0.391E-13 -.715E+03   0.114E-23 -.653E-22 0.469E+00
   0.472E+00 0.472E+00 0.714E+03   -.467E+00 -.467E+00 -.715E+03   -.264E-02 -.264E-02 0.531E+00
   -.487E-13 0.284E+01 -.643E+03   0.298E-11 -.283E+01 0.643E+03   0.422E-22 -.135E-01 -.164E+00
   0.413E+01 0.310E-12 -.636E+03   -.405E+01 -.995E-13 0.636E+03   -.784E-01 0.467E-22 -.260E+00
   -.651E-13 -.633E-12 -.199E+04   0.142E-13 -.355E-14 0.198E+04   -.121E-21 -.300E-22 0.597E+01
   0.181E+02 0.181E+02 -.198E+04   -.182E+02 -.182E+02 0.198E+04   0.934E-01 0.934E-01 0.605E+01
   0.700E-12 -.124E+00 0.208E+04   -.128E-10 0.121E+00 -.207E+04   0.731E-22 0.182E-02 -.705E+01
   -.128E+00 -.660E-12 0.208E+04   0.129E+00 0.702E-13 -.207E+04   -.228E-03 0.201E-21 -.704E+01
   0.619E-12 -.451E-12 0.714E+03   0.154E-11 0.150E-10 -.715E+03   0.323E-22 0.147E-22 0.469E+00
   -.472E+00 -.472E+00 0.714E+03   0.467E+00 0.467E+00 -.715E+03   0.264E-02 0.264E-02 0.531E+00
   0.605E-12 -.413E+01 -.636E+03   -.153E-11 0.405E+01 0.636E+03   0.135E-22 0.784E-01 -.260E+00
   -.284E+01 0.572E-13 -.643E+03   0.283E+01 -.153E-11 0.643E+03   0.135E-01 -.232E-21 -.164E+00
   0.744E-12 0.135E-11 -.199E+04   0.853E-13 -.249E-13 0.198E+04   0.810E-22 -.132E-21 0.597E+01
   -.181E+02 -.181E+02 -.198E+04   0.182E+02 0.182E+02 0.198E+04   -.934E-01 -.934E-01 0.605E+01
   0.699E-12 0.124E+00 0.208E+04   -.132E-10 -.121E+00 -.207E+04   -.139E-21 -.182E-02 -.705E+01
   -.124E+00 -.298E-11 0.208E+04   0.121E+00 0.131E-10 -.207E+04   0.182E-02 0.681E-22 -.705E+01
   0.650E-12 0.288E-11 0.714E+03   -.249E-13 0.924E-13 -.715E+03   -.227E-22 0.195E-22 0.601E+00
   -.472E+00 0.472E+00 0.714E+03   0.467E+00 -.467E+00 -.715E+03   0.264E-02 -.264E-02 0.531E+00
   0.615E-12 0.413E+01 -.636E+03   0.000E+00 -.405E+01 0.636E+03   0.380E-23 -.784E-01 -.260E+00
   -.413E+01 -.201E-11 -.636E+03   0.405E+01 -.284E-13 0.636E+03   0.784E-01 -.367E-22 -.260E+00
   0.708E-12 0.369E-12 -.191E+04   0.675E-13 -.711E-14 0.191E+04   0.686E-22 0.276E-22 0.386E+01
   -.181E+02 0.181E+02 -.198E+04   0.182E+02 -.182E+02 0.198E+04   -.934E-01 0.934E-01 0.605E+01
   -.366E-13 -.404E+00 0.535E+03   0.950E-13 0.400E+00 -.535E+03   0.302E-21 0.656E-02 -.926E-01
   0.404E+00 0.623E-13 0.535E+03   -.400E+00 -.444E-14 -.535E+03   -.656E-02 -.182E-21 -.926E-01
   -.858E-14 0.269E-12 0.156E+04   0.854E-11 -.844E-11 -.156E+04   0.137E-22 0.211E-22 0.349E+01
   0.939E-01 -.939E-01 0.156E+04   -.931E-01 0.931E-01 -.156E+04   -.104E-02 0.104E-02 0.349E+01
   -.110E-13 -.733E+01 -.152E+04   -.771E-12 0.727E+01 0.153E+04   0.223E-22 0.534E-01 -.503E+01
   0.733E+01 -.139E-11 -.152E+04   -.727E+01 0.856E-12 0.153E+04   -.534E-01 0.330E-22 -.503E+01
   -.338E-13 0.650E-12 -.478E+03   -.711E-14 0.497E-13 0.478E+03   0.132E-22 0.586E-22 0.255E+00
   0.257E+01 -.257E+01 -.473E+03   -.256E+01 0.256E+01 0.473E+03   -.520E-02 0.520E-02 0.327E+00
   -.333E-13 0.404E+00 0.535E+03   0.924E-13 -.400E+00 -.535E+03   -.194E-21 -.656E-02 -.926E-01
   0.380E+00 0.391E-12 0.535E+03   -.406E+00 -.762E-11 -.535E+03   0.348E-01 -.837E-22 -.113E+00
   -.738E-14 0.700E-12 0.156E+04   0.846E-11 -.867E-12 -.156E+04   -.603E-21 0.186E-23 0.349E+01
   0.939E-01 0.939E-01 0.156E+04   -.931E-01 -.931E-01 -.156E+04   -.104E-02 -.104E-02 0.349E+01
   -.393E-13 0.733E+01 -.152E+04   -.782E-12 -.727E+01 0.153E+04   -.443E-22 -.534E-01 -.503E+01
   0.236E+02 0.112E-11 -.149E+04   -.233E+02 0.818E-11 0.150E+04   -.343E+00 -.119E-22 -.503E+01
   -.274E-13 0.172E-12 -.473E+03   -.742E-11 0.711E-14 0.473E+03   -.252E-22 0.461E-22 0.281E+00
   0.257E+01 0.257E+01 -.473E+03   -.256E+01 -.256E+01 0.473E+03   -.520E-02 -.520E-02 0.327E+00
   0.288E-12 -.380E+00 0.535E+03   0.763E-11 0.406E+00 -.535E+03   0.737E-22 -.348E-01 -.113E+00
   -.404E+00 0.934E-13 0.535E+03   0.400E+00 -.568E-13 -.535E+03   0.656E-02 0.487E-22 -.926E-01
   0.336E-12 -.478E-12 0.156E+04   0.918E-12 -.848E-11 -.156E+04   0.363E-22 0.277E-21 0.349E+01
   -.939E-01 -.939E-01 0.156E+04   0.931E-01 0.931E-01 -.156E+04   0.104E-02 0.104E-02 0.349E+01
   0.324E-12 -.236E+02 -.149E+04   -.815E-11 0.233E+02 0.150E+04   0.686E-22 0.343E+00 -.503E+01
   -.733E+01 -.140E-11 -.152E+04   0.727E+01 0.888E-12 0.153E+04   0.534E-01 -.476E-22 -.503E+01
   0.283E-12 0.734E-12 -.473E+03   -.355E-13 0.743E-11 0.473E+03   -.406E-22 0.171E-22 0.281E+00
   -.257E+01 -.257E+01 -.473E+03   0.256E+01 0.256E+01 0.473E+03   0.520E-02 0.520E-02 0.327E+00
   0.286E-12 0.380E+00 0.535E+03   0.769E-11 -.406E+00 -.535E+03   -.727E-22 0.348E-01 -.113E+00
   -.380E+00 -.222E-11 0.535E+03   0.406E+00 -.770E-11 -.535E+03   -.348E-01 -.687E-22 -.113E+00
   0.303E-12 0.970E-12 0.156E+04   0.876E-12 -.888E-12 -.156E+04   -.104E-23 -.216E-21 0.348E+01
   -.939E-01 0.939E-01 0.156E+04   0.931E-01 -.931E-01 -.156E+04   0.104E-02 -.104E-02 0.349E+01
   0.355E-12 0.236E+02 -.149E+04   -.818E-11 -.233E+02 0.150E+04   -.599E-22 -.343E+00 -.503E+01
   -.236E+02 0.257E-11 -.149E+04   0.233E+02 0.818E-11 0.150E+04   0.343E+00 -.800E-22 -.503E+01
   0.254E-12 -.256E-12 -.473E+03   -.782E-13 0.355E-13 0.473E+03   0.340E-22 -.262E-22 -.199E+00
   -.257E+01 0.257E+01 -.473E+03   0.256E+01 -.256E+01 0.473E+03   0.520E-02 -.520E-02 0.327E+00
 -----------------------------------------------------------------------------------------------
   0.171E-10 0.194E-10 0.523E+02   -.959E-13 0.604E-13 0.972E-11   0.130E-15 -.746E-16 -.523E+02


 POSITION                                       TOTAL-FORCE (eV/Angst)
 -----------------------------------------------------------------------------------
      4.22049      4.22049     16.31916         0.000000      0.000000      0.339685
      4.22049      4.22049     17.46598         0.000000      0.000000     -0.369621
      0.00000      6.33074      7.50000         0.000000      0.000012      0.346336
      2.11025      0.00000      7.50000        -0.000012      0.000000      0.346336
      0.00000      0.00000      9.61025         0.000000      0.000000      0.033794
      2.11025      6.33074      9.61025         0.001508     -0.001508      0.035183
      0.00000      6.33023     11.73368         0.000000      0.000733      0.035334
      2.11076      0.00000     11.73368        -0.000733      0.000000      0.035334
      0.00000      0.00000     13.83822         0.000000      0.000000     -0.013439
      2.10905      6.33193     13.83447        -0.006195      0.006195     -0.014469
      0.00000      2.11025      7.50000         0.000000     -0.000012      0.346336
      2.11025      4.22049      7.50000         0.000507      0.000000      0.346467
      0.00000      4.22049      9.61025         0.000000      0.000000      0.041900
      2.11025      2.11025      9.61025         0.001508      0.001508      0.035183
      0.00000      2.11076     11.73368         0.000000     -0.000733      0.035334
      2.11344      4.22049     11.73659        -0.004932      0.000000      0.035572
      0.00000      4.22049     13.83544         0.000000      0.000000     -0.015298
      2.10905      2.10905     13.83447        -0.006195     -0.006195     -0.014469
      4.22049      6.33074      7.50000         0.000000     -0.000507      0.346467
      6.33074      0.00000      7.50000         0.000012      0.000000      0.346336
      4.22049      0.00000      9.61025         0.000000      0.000000      0.041900
      6.33074      6.33074      9.61025        -0.001508     -0.001508      0.035183
      4.22049      6.32754     11.73659         0.000000      0.004932      0.035572
      6.33023      0.00000     11.73368         0.000733      0.000000      0.035334
      4.22049      0.00000     13.83544         0.000000      0.000000     -0.015298
      6.33193      6.33193     13.83447         0.006195      0.006195     -0.014469
      4.22049      2.11025      7.50000         0.000000      0.000507      0.346467
      6.33074      4.22049      7.50000        -0.000507      0.000000      0.346467
      4.22049      4.22049      9.61025         0.000000      0.000000      0.048136
      6.33074      2.11025      9.61025        -0.001508      0.001508      0.035183
      4.22049      2.11344     11.73659         0.000000     -0.004932      0.035572
      6.32754      4.22049     11.73659         0.004932      0.000000      0.035572
      4.22049      4.22049     13.87814         0.000000      0.000000      0.083977
      6.33193      2.10905     13.83447         0.006195     -0.006195     -0.014469
      0.00000      6.33074      9.61025         0.000000      0.001934      0.062734
      2.11025      0.00000      9.61025        -0.001934      0.000000      0.062734
      0.00000      0.00000      7.50000         0.000000      0.000000     -0.516736
      2.11025      6.33074      7.50000        -0.000282      0.000282     -0.516448
      0.00000      6.33258     13.88587         0.000000     -0.002474      0.018879
      2.10840      0.00000     13.88587         0.002474      0.000000      0.018879
      0.00000      0.00000     11.72785         0.000000      0.000000      0.019153
      2.10979      6.33120     11.72890         0.003940     -0.003940      0.014210
      0.00000      2.11025      9.61025         0.000000     -0.001934      0.062734
      2.11025      4.22049      9.61025         0.009073      0.000000      0.071668
      0.00000      4.22049      7.50000         0.000000      0.000000     -0.516558
      2.11025      2.11025      7.50000        -0.000282     -0.000282     -0.516448
      0.00000      2.10840     13.88587         0.000000      0.002474      0.018879
      2.10031      4.22049     13.88381        -0.006646      0.000000      0.021307
      0.00000      4.22049     11.72684         0.000000      0.000000      0.017827
      2.10979      2.10979     11.72890         0.003940      0.003940      0.014210
      4.22049      6.33074      9.61025         0.000000     -0.009073      0.071668
      6.33074      0.00000      9.61025         0.001934      0.000000      0.062734
      4.22049      0.00000      7.50000         0.000000      0.000000     -0.516558
      6.33074      6.33074      7.50000         0.000282      0.000282     -0.516448
      4.22049      6.34068     13.88381         0.000000      0.006646      0.021307
      6.33258      0.00000     13.88587        -0.002474      0.000000      0.018879
      4.22049      0.00000     11.72684         0.000000      0.000000      0.017827
      6.33120      6.33120     11.72890        -0.003940     -0.003940      0.014210
      4.22049      2.11025      9.61025         0.000000      0.009073      0.071668
      6.33074      4.22049      9.61025        -0.009073      0.000000      0.071668
      4.22049      4.22049      7.50000         0.000000      0.000000     -0.517139
      6.33074      2.11025      7.50000         0.000282     -0.000282     -0.516448
      4.22049      2.10031     13.88381         0.000000     -0.006646      0.021307
      6.34068      4.22049     13.88381         0.006646      0.000000      0.021307
      4.22049      4.22049     11.73684         0.000000      0.000000      0.009359
      6.33120      2.10979     11.72890        -0.003940      0.003940      0.014210
 -----------------------------------------------------------------------------------
    total drift:                                0.000000      0.000000     -0.010126


--------------------------------------------------------------------------------------------------------



  FREE ENERGIE OF THE ION-ELECTRON SYSTEM (eV)
  ---------------------------------------------------
  free  energy   TOTEN  =      -390.80916499 eV

  energy  without entropy=     -390.80916499  energy(sigma->0) =     -390.80916499



--------------------------------------------------------------------------------------------------------


    POTLOK:  cpu time      0.1424: real time      0.1428


--------------------------------------------------------------------------------------------------------


     LOOP+:  cpu time     50.6550: real time     50.8642
    4ORBIT:  cpu time      0.0000: real time      0.0000

 total amount of memory used by VASP MPI-rank0   132524. kBytes
=======================================================================

   base      :      30000. kBytes
   nonl-proj :      58834. kBytes
   fftplans  :      14615. kBytes
   grid      :      21323. kBytes
   one-center:        267. kBytes
   wavefun   :       7485. kBytes



 General timing and accounting informations for this job:
 ========================================================

                  Total CPU time used (sec):       53.825
                            User time (sec):       53.384
                          System time (sec):        0.442
                         Elapsed time (sec):       54.699

                   Maximum memory used (kb):      399772.
                   Average memory used (kb):          N/A

                          Minor page faults:        53019
                          Major page faults:          108
                 Voluntary context switches:         1823
