
                                 *****************
                                 * O   R   C   A *
                                 *****************

                                            #,
                                            ###
                                            ####
                                            #####
                                            ######
                                           ########,
                                     ,,################,,,,,
                               ,,#################################,,
                          ,,##########################################,,
                       ,#########################################, ''#####,
                    ,#############################################,,   '####,
                  ,##################################################,,,,####,
                ,###########''''           ''''###############################
              ,#####''   ,,,,##########,,,,          '''####'''          '####
            ,##' ,,,,###########################,,,                        '##
           ' ,,###''''                  '''############,,,
         ,,##''                                '''############,,,,        ,,,,,,###''
      ,#''                                            '''#######################'''
     '                                                          ''''####''''
             ,#######,   #######,   ,#######,      ##
            ,#'     '#,  ##    ##  ,#'     '#,    #''#        ,####,   ,####,
            ##       ##  ##   ,#'  ##            #'  '#       #'       #'  '#
            ##       ##  #######   ##           ,######,      #####,   #    #
            '#,     ,#'  ##    ##  '#,     ,#' ,#      #,     #,   #   #,  ,#
             '#######'   ##     ##  '#######'  #'      '#     '####' # '####'



                #########################################################
                #                        -***-                          #
                #          Department of theory and spectroscopy        #
                #                                                       #
                #                      Frank Neese                      #
                #                                                       #
                #     Directorship, Architecture, Infrastructure        #
                #                    SHARK, DRIVERS                     #
                #        Core code/Algorithms in most modules           #
                #                                                       #
                #        Max Planck Institute fuer Kohlenforschung      #
                #                Kaiser Wilhelm Platz 1                 #
                #                 D-45470 Muelheim/Ruhr                 #
                #                      Germany                          #
                #                                                       #
                #                  All rights reserved                  #
                #                        -***-                          #
                #########################################################


                         Program Version 6.0.0  -   RELEASE  -


 With contributions from (in alphabetic order):
   Daniel Aravena         : Magnetic Suceptibility
   Michael Atanasov       : Ab Initio Ligand Field Theory (pilot matlab implementation)
   Alexander A. Auer      : GIAO ZORA, VPT2 properties, NMR spectrum
   Ute Becker             : All parallelization in ORCA, NUMFREQ, NUMCALC
   Giovanni Bistoni       : ED, misc. LED, open-shell LED, HFLD
   Martin Brehm           : Molecular dynamics
   Dmytro Bykov           : pre 5.0 version of the SCF Hessian
   Marcos Casanova-Páez   : Triplet and SCS-CIS(D). UHF-(DLPNO)-IP/EA/STEOM-CCSD. UHF-CVS-IP/STEOM-CCSD
   Vijay G. Chilkuri      : MRCI spin determinant printing, contributions to CSF-ICE
   Pauline Colinet        : FMM embedding
   Dipayan Datta          : RHF DLPNO-CCSD density
   Achintya Kumar Dutta   : EOM-CC, STEOM-CC
   Nicolas Foglia         : Exact transition moments, OPA infrastructure, MCD improvements
   Dmitry Ganyushin       : Spin-Orbit,Spin-Spin,Magnetic field MRCI
   Miquel Garcia          : C-PCM and meta-GGA Hessian, CCSD/C-PCM, Gaussian charge scheme
   Tiago L. C. Gouveia    : GS-ROHF, GS-ROCIS
   Yang Guo               : DLPNO-NEVPT2, F12-NEVPT2, CIM, IAO-localization
   Andreas Hansen         : Spin unrestricted coupled pair/coupled cluster methods
   Ingolf Harden          : AUTO-CI MPn and infrastructure
   Benjamin Helmich-Paris : MC-RPA, TRAH-(SCF,CASSCF), AVAS, COSX integrals, SCF dyn. polar.
   Lee Huntington         : MR-EOM, pCC
   Robert Izsak           : Overlap fitted RIJCOSX, COSX-SCS-MP3, EOM
   Riya Kayal             : Wick's Theorem for AUTO-CI, AUTO-CI UHF-CCSDT
   Emily Kempfer          : AUTO-CI, RHF CISDT and CCSDT
   Christian Kollmar      : KDIIS, OOCD, Brueckner-CCSD(T), CCSD density, CASPT2, CASPT2-K, improved NEVPT2
   Axel Koslowski         : Symmetry handling
   Simone Kossmann        : Meta GGA functionals, TD-DFT gradient, OOMP2, (MP2 Hessian; deprecated post 5.0)
   Lucas Lang             : DCDCAS
   Marvin Lechner         : AUTO-CI (C++ implementation), FIC-MRCC
   Spencer Leger          : CASSCF response
   Dagmar Lenk            : GEPOL surface, SMD, ORCA-2-JSON
   Dimitrios Liakos       : Extrapolation schemes; Compound Job, initial MDCI parallelization
   Dimitrios Manganas     : Further ROCIS development; embedding schemes. LFT, Crystal Embedding
   Dimitrios Pantazis     : SARC Basis sets
   Anastasios Papadopoulos: AUTO-CI, single reference methods and gradients
   Taras Petrenko         : pre 6.0 DFT Hessian and TD-DFT gradient, (ASA, deprecated), ECA, 1-Electron XAS/XES, NRVS
   Peter Pinski           : DLPNO-MP2, DLPNO-MP2 Gradient
   Christoph Reimann      : Effective Core Potentials
   Marius Retegan         : Local ZFS, SOC
   Christoph Riplinger    : Optimizer, TS searches, QM/MM, DLPNO-CCSD(T), (RO)-DLPNO pert. Triples
   Michael Roemelt        : Original ROCIS implementation
   Masaaki Saitow         : Open-shell DLPNO-CCSD energy and density
   Barbara Sandhoefer     : DKH picture change effects
   Kantharuban Sivalingam : CASSCF convergence/infrastructure, NEVPT2 and variants, FIC-MRCI
   Bernardo de Souza      : ESD, SOC TD-DFT
   Georgi Stoychev        : AutoAux, RI-MP2 NMR, DLPNO-MP2 response, X2C
   Van Anh Tran           : RI-MP2 g-tensors
   Willem Van den Heuvel  : Paramagnetic NMR
   Zikuan Wang            : NOTCH, Electric field optimization
   Frank Wennmohs         : Technical directorship and infrastructure
   Hang Xu                : AUTO-CI-Response properties


 We gratefully acknowledge several colleagues who have allowed us to
 interface, adapt or use parts of their codes:
   Stefan Grimme, W. Hujo, H. Kruse, P. Pracht,  : VdW corrections, initial TS optimization,
                  C. Bannwarth, S. Ehlert,         DFT functionals, gCP, sTDA/sTD-DF
                  L. Wittmann, M. Mueller
   Ed Valeev, F. Pavosevic, A. Kumar             : LibInt (2-el integral package), F12 methods
   Garnet Chan, S. Sharma, J. Yang, R. Olivares  : DMRG
   Ulf Ekstrom                                   : XCFun DFT Library
   Mihaly Kallay                                 : mrcc  (arbitrary order and MRCC methods)
   Frank Weinhold                                : gennbo (NPA and NBO analysis)
   Simon Mueller                                 : openCOSMO-RS
   Christopher J. Cramer and Donald G. Truhlar   : smd solvation model
   Lars Goerigk                                  : TD-DFT with DH, B97 family of functionals
   V. Asgeirsson, H. Jonsson                     : NEB implementation
   FAccTs GmbH                                   : IRC, NEB, NEB-TS, DLPNO-Multilevel, CI-OPT
                                                   MM, QMMM, 2- and 3-layer-ONIOM, Crystal-QMMM,
                                                   LR-CPCM, SF, NACMEs, symmetry and pop. for TD-DFT,
                                                   nearIR, NL-DFT gradient (VV10), updates on ESD,
                                                   ML-optimized integration grids, MBIS, APM,
                                                   GOAT, DOCKER, SOLVATOR, interface openCOSMO-RS
   S Lehtola, MJT Oliveira, MAL Marques          : LibXC Library
   Liviu Ungur et al                             : ANISO software


 Your calculation uses the libint2 library for the computation of 2-el integrals
 For citations please refer to: http://libint.valeyev.net

 Your ORCA version has been built with support for libXC version: 6.2.2
 For citations please refer to: https://libxc.gitlab.io

 This ORCA versions uses:
   CBLAS   interface :  Fast vector & matrix operations
   LAPACKE interface :  Fast linear algebra routines
   SCALAPACK package :  Parallel linear algebra routines
   Shared memory     :  Shared parallel matrices
   BLAS/LAPACK       :  OpenBLAS 0.3.27  USE64BITINT DYNAMIC_ARCH NO_AFFINITY Haswell SINGLE_THREADED
        Core in use  :  Haswell
   Copyright (c) 2011-2014, The OpenBLAS Project


NOTE: MaxCore=25000 MB was set to SCF,MP2,MDCI,CIPSI,MRCI and CIS
      => If you want to overwrite this, your respective input block should be placed after the MaxCore statement
Setting NCore(C ) from 2 to 2
Setting NCore(Mg) from 2 to 2
Setting NCore(O ) from 2 to 2
SCAN-COORDS
================================================================================

----- Orbital basis set information -----
Your calculation utilizes the basis: def2-SVP
   F. Weigend and R. Ahlrichs, Phys. Chem. Chem. Phys. 7, 3297 (2005).

The basis set includes element-specific modifications.

Your calculation utilizes the basis: aug-cc-pVQZ
    H, B-Ne : Obtained from the ccRepo (grant-hill.group.shef.ac.uk/ccrepo) Feb. 2017
              R. A. Kendall, T. H. Dunning, Jr., R. J. Harrison, J. Chem. Phys. 96, 6796 (1992)
         He : Obtained from the ccRepo (grant-hill.group.shef.ac.uk/ccrepo) Feb. 2017
              D. E. Woon, T. H. Dunning, Jr., J. Chem. Phys. 100, 2975 (1994)
  Li-Be, Na : Obtained from the ccRepo (grant-hill.group.shef.ac.uk/ccrepo) Feb. 2017
              B. P. Prascher, D. E. Woon, K. A. Peterson, T. H. Dunning, Jr., A. K. Wilson, Theor. Chem. Acc. 128, 69 (2011)
         Mg : Obtained from the Peterson Research Group Website (tyr0.chem.wsu.edu/~kipeters) Feb. 2017
              B. P. Prascher, D. E. Woon, K. A. Peterson, T. H. Dunning, Jr., A. K. Wilson, Theor. Chem. Acc. 128, 69 (2011)
      Al-Ar : Obtained from the ccRepo (grant-hill.group.shef.ac.uk/ccrepo) Feb. 2017
              D. E. Woon, T. H. Dunning, Jr., J. Chem. Phys. 98, 1358 (1993)
      Sc-Zn : Obtained from the ccRepo (grant-hill.group.shef.ac.uk/ccrepo) Feb. 2017
              N. B. Balabanov, K. A. Peterson, J. Chem. Phys. 123, 064107 (2005)
              N. B. Balabanov, K. A. Peterson, J. Chem. Phys. 125, 074110 (2006)
      Ga-Kr : Obtained from the ccRepo (grant-hill.group.shef.ac.uk/ccrepo) Feb. 2017
              A. K. Wilson, D. E. Woon, K. A. Peterson, T. H. Dunning, Jr., J. Chem. Phys. 110, 7667 (1999)

Your calculation utilizes the basis: cc-pwCVQZ
             H : cc-pVQZ. Obtained from the ccRepo (grant-hill.group.shef.ac.uk/ccrepo) Feb. 2017
                 T. H. Dunning, Jr., J. Chem. Phys. 90, 1007 (1989)
            He : cc-pVQZ. Obtained from the ccRepo (grant-hill.group.shef.ac.uk/ccrepo) Feb. 2017
                 D. E. Woon, T. H. Dunning, Jr., J. Chem. Phys. 100, 2975 (1994)
  Li-Be, Na-Mg : Obtained from the ccRepo (grant-hill.group.shef.ac.uk/ccrepo) Feb. 2017
                 B. P. Prascher, D. E. Woon, K. A. Peterson, T. H. Dunning, Jr., A. K. Wilson, Theor. Chem. Acc. 128, 69 (2011)
          B-Ne : Obtained from the ccRepo (grant-hill.group.shef.ac.uk/ccrepo) Feb. 2017
                 K. A. Peterson, T. H. Dunning, Jr., J. Chem. Phys. 117, 10548 (2002)
         Al-Ar : Obtained from the EMSL Basis Set Exchange (bse.pnl.gov) Feb. 2017
                 K. A. Peterson, T. H. Dunning, Jr., J. Chem. Phys. 117, 10548 (2002)
            Ca : Obtained from the Peterson Research Group Website (tyr0.chem.wsu.edu/~kipeters) Feb. 2017
                 J. Koput, K. A. Peterson, J. Phys. Chem. 106, 9595 (2002)
         Sc-Zn : Obtained from the ccRepo (grant-hill.group.shef.ac.uk/ccrepo) Feb. 2017
                 N. B. Balabanov, K. A. Peterson, J. Chem. Phys. 123, 064107 (2005)
                 N. B. Balabanov, K. A. Peterson, J. Chem. Phys. 125, 074110 (2006)
         Ga-Kr : Obtained from the Peterson Research Group Website (tyr0.chem.wsu.edu/~kipeters) Feb. 2017
                 K. A. Peterson, K. E. Yousaf, J. Chem. Phys. 133, 174116 (2010)
                 N. J. DeYonker, K. A. Peterson, A. K. Wilson, J. Phys. Chem. A 111, 11383 (2007)

----- AuxJ basis set information -----
Your calculation utilizes the auxiliary basis: def2/J
   F. Weigend, Phys. Chem. Chem. Phys. 8, 1057 (2006).

----- AuxC basis set information -----
The basis set includes element-specific modifications.

Your calculation utilizes the auxiliary basis: aug-cc-pVQZ/C
  H-He, B-F, Al-Ar, Ga-Kr : Obtained from the EMSL Basis Set Exchange (bse.pnl.gov) Feb. 2017
                            F. Weigend, A. Kohn, C. Hattig, J. Chem. Phys. 116, 3175 (2002)
                   Be, Mg : Obtained from the TURBOMOLE 7.0 basis set library
                            C. Haettig, Phys. Chem. Chem. Phys. 7, 59 (2005)
                       Ne : Obtained from the EMSL Basis Set Exchange (bse.pnl.gov) Feb. 2017
                            C. Haettig, Phys. Chem. Chem. Phys. 7, 59 (2005)
                            F. Weigend, A. Kohn, C. Hattig, J. Chem. Phys. 116, 3175 (2002)
                    Sc-Zn : Obtained from the EMSL Basis Set Exchange (bse.pnl.gov) Feb. 2017
                            D. H. Bross, J. G. Hill, H. J. Werner, K. A. Peterson, J. Chem. Phys. 139, 094302 (2013)

Your calculation utilizes the AutoAux generation procedure.
  G. L. Stoychev, A. A. Auer, F. Neese, J. Chem. Theory Comput. 13, 554 (2017)

================================================================================
                                        WARNINGS
                       Please study these warnings very carefully!
================================================================================

WARNING: Old DensityContainer found on disk!
         Will remove this file -
         If you want to keep old densities, please start your calculation with a different basename.


WARNING: No MP2 level density has been requested!
         To calculate MP2 level properties use
         %mp2 Density relaxed end
         or
         %mp2 Density unrelaxed end

WARNING: Post HF methods need fully converged wavefunctions
  ===> : Setting SCFConvForced true
         You can overwrite this default with %scf ConvForced false


================================================================================
                                       INPUT FILE
================================================================================
NAME = orca.inp
|  1> ! TightSCF RI-MP2 RIJCOSX SlowConv DIIS
|  2> %pal nprocs 8 end
|  3> %maxcore 25000
|  4> %method
|  5> Method hf
|  6> RI on
|  7> RunTyp Energy
|  8> NewNCore C 2 end
|  9> NewNCore Mg 2 end
| 10> NewNCore O 2 end
| 11> end
| 12> %basis
| 13> NewGTO C "aug-cc-pVQZ" end
| 14> NewGTO Mg "cc-pwCVQZ" end
| 15> NewGTO O "aug-cc-pVQZ" end
| 16> Aux "def2/J"
| 17> NewAuxCGTO C "aug-cc-pVQZ/C" end
| 18> NewAuxCGTO Mg "AutoAux" end
| 19> NewAuxCGTO O "aug-cc-pVQZ/C" end
| 20> end
| 21> %scf
| 22> HFTyp rhf
| 23> SCFMode Direct
| 24> sthresh 1e-6
| 25> AutoTRAHIter 60
| 26> MaxIter 1000
| 27> end
| 28> %coords
| 29> CTyp xyz
| 30> Mult 1
| 31> Units angs
| 32> Charge 0
| 33> coords
| 34> C                       0.00000000000    0.00000000000    2.44102235837
| 35> O                       0.00000000000    0.00000000000    3.58784217303
| 36> Mg:                     0.00000000000    0.00000000000    0.00000000000
| 37> O:                     -2.12018425659    0.00000000000    0.00567209089
| 38> O:                      0.00000000000    2.12018425659    0.00567209089
| 39> O:                      2.12018425659    0.00000000000    0.00567209089
| 40> O:                      0.00000000000   -2.12018425659    0.00567209089
| 41> O:                      0.00000000000    0.00000000000   -2.14129966123
| 42> end
| 43> end
| 44>
| 45>
| 46>                          ****END OF INPUT****
================================================================================

                       ****************************
                       * Single Point Calculation *
                       ****************************

---------------------------------
CARTESIAN COORDINATES (ANGSTROEM)
---------------------------------
  C      0.000000    0.000000    2.441022
  O      0.000000    0.000000    3.587842
  Mg     0.000000    0.000000    0.000000
  O     -2.120184    0.000000    0.005672
  O      0.000000    2.120184    0.005672
  O      2.120184    0.000000    0.005672
  O      0.000000   -2.120184    0.005672
  O      0.000000    0.000000   -2.141300

----------------------------
CARTESIAN COORDINATES (A.U.)
----------------------------
  NO LB      ZA    FRAG     MASS         X           Y           Z
   0 C     6.0000    0    12.011    0.000000    0.000000    4.612864
   1 O     8.0000    0    15.999    0.000000    0.000000    6.780039
   2 Mg    0.0000    0     0.000    0.000000    0.000000    0.000000
   3 O     0.0000    0     0.000   -4.006568    0.000000    0.010719
   4 O     0.0000    0     0.000    0.000000    4.006568    0.010719
   5 O     0.0000    0     0.000    4.006568    0.000000    0.010719
   6 O     0.0000    0     0.000    0.000000   -4.006568    0.010719
   7 O     0.0000    0     0.000    0.000000    0.000000   -4.046470

--------------------------------
INTERNAL COORDINATES (ANGSTROEM)
--------------------------------
 C      0   0   0     0.000000000000     0.00000000     0.00000000
 O      1   0   0     1.146819814660     0.00000000     0.00000000
 Mg     1   2   0     2.441022358370   179.99999915     0.00000000
 O      3   1   2     2.120191843798    89.84671800     0.00000000
 O      3   1   2     2.120191843798    89.84671800     0.00000000
 O      3   1   2     2.120191843798    89.84671800     0.00000000
 O      3   1   2     2.120191843798    89.84671800     0.00000000
 O      3   1   2     2.141299661230   179.99999852     0.00000000

---------------------------
INTERNAL COORDINATES (A.U.)
---------------------------
 C      0   0   0     0.000000000000     0.00000000     0.00000000
 O      1   0   0     2.167175374662     0.00000000     0.00000000
 Mg     1   2   0     4.612863744098   179.99999915     0.00000000
 O      3   1   2     4.006581936152    89.84671800     0.00000000
 O      3   1   2     4.006581936152    89.84671800     0.00000000
 O      3   1   2     4.006581936152    89.84671800     0.00000000
 O      3   1   2     4.006581936152    89.84671800     0.00000000
 O      3   1   2     4.046469930383   179.99999852     0.00000000

---------------------
BASIS SET INFORMATION
---------------------
There are 3 groups of distinct atoms

 Group   1 Type C   : 22s7p4d3f2g contracted to 6s5p4d3f2g pattern {991111/31111/1111/111/11}
 Group   2 Type O   : 22s7p4d3f2g contracted to 6s5p4d3f2g pattern {991111/31111/1111/111/11}
 Group   3 Type Mg  : 45s24p6d4f2g contracted to 9s8p6d4f2g pattern {131313111111/99111111/111111/1111/11}

Atom   0C    basis set group =>   1
Atom   1O    basis set group =>   2
Atom   2Mg   basis set group =>   3
Atom   3O    basis set group =>   2
Atom   4O    basis set group =>   2
Atom   5O    basis set group =>   2
Atom   6O    basis set group =>   2
Atom   7O    basis set group =>   2
---------------------------------
AUXILIARY/J BASIS SET INFORMATION
---------------------------------
There are 3 groups of distinct atoms

 Group   1 Type C   : 12s5p4d2f1g contracted to 6s4p3d1f1g pattern {711111/2111/211/2/1}
 Group   2 Type O   : 12s5p4d2f1g contracted to 6s4p3d1f1g pattern {711111/2111/211/2/1}
 Group   3 Type Mg  : 14s5p5d2f1g contracted to 8s4p4d1f1g pattern {71111111/2111/2111/2/1}

Atom   0C    basis set group =>   1
Atom   1O    basis set group =>   2
Atom   2Mg   basis set group =>   3
Atom   3O    basis set group =>   2
Atom   4O    basis set group =>   2
Atom   5O    basis set group =>   2
Atom   6O    basis set group =>   2
Atom   7O    basis set group =>   2
---------------------------------
AUXILIARY/C BASIS SET INFORMATION
---------------------------------
There are 3 groups of distinct atoms

 Group   1 Type C   : 9s8p7d6f4g2h contracted to 9s8p7d6f4g2h pattern {111111111/11111111/1111111/111111/1111/11}
 Group   2 Type O   : 9s8p7d6f4g2h contracted to 9s8p7d6f4g2h pattern {111111111/11111111/1111111/111111/1111/11}
 Group   3 Type Mg  : 19s17p16d9f8g7h contracted to 19s17p16d9f8g7h pattern {1111111111111111111/11111111111111111/1111111111111111/111111111/11111111/1111111}

Atom   0C    basis set group =>   1
Atom   1O    basis set group =>   2
Atom   2Mg   basis set group =>   3
Atom   3O    basis set group =>   2
Atom   4O    basis set group =>   2
Atom   5O    basis set group =>   2
Atom   6O    basis set group =>   2
Atom   7O    basis set group =>   2

Checking for AutoStart:
The File: orca.gbw exists
Trying to determine its content:
     ... Fine, the file contains calculation information
     ... Fine, the calculation information was read
     ... Fine, the file contains a basis set
     ... Fine, the basis set was read
     ... Fine, the file contains a geometry
     ... Fine, the geometry was read
     ... Fine, the file contains a set of orbitals
     ... Fine, the orbitals can be read
     => possible old guess file was deleted
     => GBW file was renamed to GES file
     => GES file is set as startup file
     => Guess is set to MORead
     ... now leaving AutoStart



           ************************************************************
           *        Program running with 8 parallel MPI-processes     *
           *              working on a common directory               *
           ************************************************************
------------------------------------------------------------------------------
                             ORCA STARTUP CALCULATIONS
                           -- RI-GTO INTEGRALS CHOSEN --
------------------------------------------------------------------------------
------------------------------------------------------------------------------
                   ___
                  /   \      - P O W E R E D   B Y -
                 /     \
                 |  |  |   _    _      __       _____    __    __
                 |  |  |  | |  | |    /  \     |  _  \  |  |  /  |
                  \  \/   | |  | |   /    \    | | | |  |  | /  /
                 / \  \   | |__| |  /  /\  \   | |_| |  |  |/  /
                |  |  |   |  __  | /  /__\  \  |    /   |      \
                |  |  |   | |  | | |   __   |  |    \   |  |\   \
                \     /   | |  | | |  |  |  |  | |\  \  |  | \   \
                 \___/    |_|  |_| |__|  |__|  |_| \__\ |__|  \__/

                      - O R C A' S   B I G   F R I E N D -
                                      &
                       - I N T E G R A L  F E E D E R -

 v1 FN, 2020, v2 2021, v3 2022-2024
------------------------------------------------------------------------------


----------------------
SHARK INTEGRAL PACKAGE
----------------------

Number of atoms                             ...      8
Number of basis functions                   ...    749
Number of shells                            ...    235
Maximum angular momentum                    ...      4
Integral batch strategy                     ... SHARK/LIBINT Hybrid
RI-J (if used) integral strategy            ... SPLIT-RIJ (Revised 2003 algorithm where possible)
Printlevel                                  ...      1
Contraction scheme used                     ... PARTIAL GENERAL contraction
Prescreening option                         ... SCHWARTZ
   Thresh                                   ... 2.500e-11
   Tcut                                     ... 2.500e-12
   Tpresel                                  ... 2.500e-12
Coulomb Range Separation                    ... NOT USED
Exchange Range Separation                   ... NOT USED
Multipole approximations                    ... NOT USED
Finite Nucleus Model                        ... NOT USED
CABS basis                                  ... NOT available
Auxiliary Coulomb fitting basis             ... AVAILABLE
   # of basis functions in Aux-J            ...    399
   # of shells in Aux-J                     ...    123
   Maximum angular momentum in Aux-J        ...      4
Auxiliary J/K fitting basis                 ... NOT available
Auxiliary Correlation fitting basis         ... AVAILABLE
   # of basis functions in Aux-C            ...   1538
   # of shells in Aux-C                     ...    328
   Maximum angular momentum in Aux-C        ...      5
Auxiliary 'external' fitting basis          ... NOT available

Checking pre-screening integrals            ... done (  0.0 sec) Dimension = 235
Save PGC pre-screening integrals            ... done (  0.0 sec) Dimension = 235
Calculate PGC overlap integrals             ... done (  0.1 sec) Dimension = 169
Calculating pre-screening integrals (ORCA)  ... done (  0.3 sec) Dimension = 169
Check shell pair data                       ... done (  0.0 sec)
Shell pair information
Shell pair cut-off parameter TPreSel        ...   2.5e-12
Total number of shell pairs                 ...     27730
Shell pairs after pre-screening             ...     19690
Total number of primitive shell pairs       ...     31146
Primitive shell pairs kept                  ...     21169
          la=0 lb=0:   2943 shell pairs
          la=1 lb=0:   3876 shell pairs
          la=1 lb=1:   1140 shell pairs
          la=2 lb=0:   2680 shell pairs
          la=2 lb=1:   1501 shell pairs
          la=2 lb=2:    538 shell pairs
          la=3 lb=0:   1983 shell pairs
          la=3 lb=1:   1103 shell pairs
          la=3 lb=2:    762 shell pairs
          la=3 lb=3:    291 shell pairs
          la=4 lb=0:   1187 shell pairs
          la=4 lb=1:    715 shell pairs
          la=4 lb=2:    474 shell pairs
          la=4 lb=3:    372 shell pairs
          la=4 lb=4:    125 shell pairs

Calculating one electron integrals          ... done (  0.1 sec)
Calculating RI/J V-Matrix + Cholesky decomp.... done (  0.0 sec)
Calculating RI/C V-Matrix + Cholesky decomp.... done (  0.3 sec)
Calculating Nuclear repulsion               ... done (  0.0 sec) ENN=     22.148645910806 Eh

Diagonalization of the overlap matrix:
Smallest eigenvalue                        ... 2.365e-05
Time for diagonalization                   ...    0.082 sec
Threshold for overlap eigenvalues          ... 1.000e-06
Number of eigenvalues below threshold      ... 0
Time for construction of square roots      ...    0.045 sec
Total time needed                          ...    0.131 sec

-------------------
DFT GRID GENERATION
-------------------

General Integration Accuracy     IntAcc      ... 4.388
Radial Grid Type                 RadialGrid  ... OptM3 with GC (2021)
Angular Grid (max. ang.)         AngularGrid ... 4 (Lebedev-302)
Angular grid pruning method      GridPruning ... 4 (adaptive)
Weight generation scheme         WeightScheme... mBecke (2022)
Basis function cutoff            BFCut       ... 1.0000e-11
Integration weight cutoff        WCut        ... 1.0000e-14
Partially contracted basis set               ... off
Rotationally invariant grid construction     ... off
Angular grids for H and He will be reduced by one unit
Diffuse basis detected: some atoms will have their outermost
                        angular grid increased by 1.
Core-polarized basis detected: some atoms will have their core
                               angular grid increased.

Total number of grid points                  ...    54613
Total number of batches                      ...      858
Average number of points per batch           ...       63
Average number of grid points per atom       ...     6827

---------------------
SHARK GRID GENERATION
---------------------

General Integration Accuracy     IntAcc      ... 4.388
Radial Grid Type                 RadialGrid  ... OptM3 with GC (2021)
Angular Grid (max. ang.)         AngularGrid ... 4 (Lebedev-302)
Angular grid pruning method      GridPruning ... 4 (adaptive)
Weight generation scheme         WeightScheme... mBecke (2022)
Basis function cutoff            BFCut       ... 1.0000e-11
Integration weight cutoff        WCut        ... 1.0000e-14
Partially contracted basis set               ... off
Rotationally invariant grid construction     ... off
Angular grids for H and He will be reduced by one unit
Diffuse basis detected: some atoms will have their outermost
                        angular grid increased by 1.
Core-polarized basis detected: some atoms will have their core
                               angular grid increased.
Steep s-basis detected: some atoms will have their radial
                        grid points doubled.

Total number of grid points                  ...   109892
Total number of batches                      ...     1722
Average number of points per batch           ...       63
Average number of grid points per atom       ...    13736

--------------------
COSX GRID GENERATION
--------------------

GRIDX 1
-------
General Integration Accuracy     IntAcc      ... 3.816
Radial Grid Type                 RadialGrid  ... OptM3 with GC (2021)
Angular Grid (max. ang.)         AngularGrid ... 1 (Lebedev-50)
Angular grid pruning method      GridPruning ... 4 (adaptive)
Weight generation scheme         WeightScheme... mBecke (2022)
Basis function cutoff            BFCut       ... 1.0000e-11
Integration weight cutoff        WCut        ... 1.0000e-14
Partially contracted basis set               ... on
Rotationally invariant grid construction     ... off
Angular grids for H and He will be reduced by one unit
Diffuse basis detected: some atoms will have their outermost
                        angular grid increased by 1.
Core-polarized basis detected: some atoms will have their core
                               angular grid increased.

Total number of grid points                  ...     7826
Total number of batches                      ...       65
Average number of points per batch           ...      120
Average number of grid points per atom       ...      978
UseSFitting                                  ... on

GRIDX 2
-------
General Integration Accuracy     IntAcc      ... 4.020
Radial Grid Type                 RadialGrid  ... OptM3 with GC (2021)
Angular Grid (max. ang.)         AngularGrid ... 2 (Lebedev-110)
Angular grid pruning method      GridPruning ... 4 (adaptive)
Weight generation scheme         WeightScheme... mBecke (2022)
Basis function cutoff            BFCut       ... 1.0000e-11
Integration weight cutoff        WCut        ... 1.0000e-14
Partially contracted basis set               ... on
Rotationally invariant grid construction     ... off
Angular grids for H and He will be reduced by one unit
Diffuse basis detected: some atoms will have their outermost
                        angular grid increased by 1.
Core-polarized basis detected: some atoms will have their core
                               angular grid increased.

Total number of grid points                  ...    17859
Total number of batches                      ...      144
Average number of points per batch           ...      124
Average number of grid points per atom       ...     2232
UseSFitting                                  ... on

GRIDX 3
-------
General Integration Accuracy     IntAcc      ... 4.338
Radial Grid Type                 RadialGrid  ... OptM3 with GC (2021)
Angular Grid (max. ang.)         AngularGrid ... 3 (Lebedev-194)
Angular grid pruning method      GridPruning ... 4 (adaptive)
Weight generation scheme         WeightScheme... mBecke (2022)
Basis function cutoff            BFCut       ... 1.0000e-11
Integration weight cutoff        WCut        ... 1.0000e-14
Partially contracted basis set               ... on
Rotationally invariant grid construction     ... off
Angular grids for H and He will be reduced by one unit
Diffuse basis detected: some atoms will have their outermost
                        angular grid increased by 1.
Core-polarized basis detected: some atoms will have their core
                               angular grid increased.

Total number of grid points                  ...    39225
Total number of batches                      ...      310
Average number of points per batch           ...      126
Average number of grid points per atom       ...     4903
UseSFitting                                  ... on
Initializing property integral containers    ... done (  0.0 sec)

SHARK setup successfully completed in   5.2 seconds

Maximum memory used throughout the entire STARTUP-calculation: 93.9 MB


           ************************************************************
           *        Program running with 8 parallel MPI-processes     *
           *              working on a common directory               *
           ************************************************************
-------------------------------------------------------------------------------
                                 ORCA GUESS
                   Start orbitals & Density for SCF / CASSCF
-------------------------------------------------------------------------------

------------
SCF SETTINGS
------------
Hamiltonian:
 Ab initio Hamiltonian  Method          .... Hartree-Fock(GTOs)
 RI-approximation to the Coulomb term is turned on
   Number of AuxJ basis functions       .... 399
   RIJ-COSX (HFX calculated with COS-X)).... on


General Settings:
 Integral files         IntName         .... orca
 Hartree-Fock type      HFTyp           .... RHF
 Total Charge           Charge          ....    0
 Multiplicity           Mult            ....    1
 Number of Electrons    NEL             ....   14
 Basis Dimension        Dim             ....  669
 Nuclear Repulsion      ENuc            ....     22.1486459108 Eh

Convergence Acceleration:
 AO-DIIS                CNVDIIS         .... on
   Start iteration      DIISMaxIt       ....     0
   Startup error        DIISStart       ....  0.200000
   # of expansion vecs  DIISMaxEq       ....     5
   Bias factor          DIISBfac        ....   1.050
   Max. coefficient     DIISMaxC        ....  10.000
 MO-DIIS                CNVKDIIS        .... off
 Trust-Rad. Augm. Hess. CNVTRAH         .... auto
   Auto Start mean grad. ratio tolernc. ....  1.125000
   Auto Start start iteration           ....     1
   Auto Start num. interpolation iter.  ....    10
   Max. Number of Micro iterations      ....    24
   Max. Number of Macro iterations      .... Maxiter - #DIIS iter
   Number of Davidson start vectors     ....     2
   Converg. threshold    (grad. norm)   ....   1.000e-05
   Grad. Scal. Fac. for Micro threshold ....   0.100
   Minimum threshold for Micro iter.    ....   1.000e-02
   NR start threshold (gradient norm)   ....   1.000e-04
   Initial trust radius                 ....   0.400
   Minimum AH scaling param. (alpha)    ....   1.000
   Maximum AH scaling param. (alpha)    .... 1000.000
   Quad. conv. algorithm                .... NR
   White noise on init. David. guess    .... on
   Maximum white noise                  ....   0.010
   Pseudo random numbers                .... off
   Inactive MOs                         .... canonical
   Orbital update algorithm             .... Taylor
   Preconditioner                       .... Diag
   Full preconditioner red. dimension   ....   250
 SOSCF                  CNVSOSCF        .... on
   Start iteration      SOSCFMaxIt      ....   150
   Startup grad/error   SOSCFStart      ....  0.001000
   Hessian update       SOSCFHessUp     .... L-BFGS
 Level Shifting         CNVShift        .... on
   Level shift para.    LevelShift      ....    0.2500
   Turn off err/grad.   ShiftErr        ....    0.0000
 Zerner damping         CNVZerner       .... off
 Static damping         CNVDamp         .... on
   Fraction old density DampFac         ....    0.8500
   Max. Damping (<1)    DampMax         ....    0.9800
   Min. Damping (>=0)   DampMin         ....    0.0000
   Turn off err/grad.   DampErr         ....    0.0300

SCF Procedure:
 Maximum # iterations   MaxIter         ....  1000
 SCF integral mode      SCFMode         .... Direct
   Integral package                     .... SHARK and LIBINT hybrid scheme
 Reset frequency        DirectResetFreq ....    20
 Integral Threshold     Thresh          ....  2.500e-11 Eh
 Primitive CutOff       TCut            ....  2.500e-12 Eh

Convergence Tolerance:
 Convergence Check Mode ConvCheckMode   .... Total+1el-Energy
 Convergence forced     ConvForced      .... 1
 Energy Change          TolE            ....  1.000e-08 Eh
 1-El. energy change                    ....  1.000e-05 Eh
 Orbital Gradient       TolG            ....  1.000e-05
 Orbital Rotation angle TolX            ....  1.000e-05
 DIIS Error             TolErr          ....  5.000e-07

---------------------
INITIAL GUESS: MOREAD
---------------------
Guess MOs are being read from file: orca.ges
Input Geometry matches current geometry (good)
Atom 0: N(Shells)= 20 and 14 - projection required
Input basis set needs projection
NBasis(read)= 381
NBasis(calc)= 669
Basis set overlap was calculated
Using GuessMode=FMatrix for the initial guess
C*T matrix was formed
Effective Fockian was calculated
Effective Fockian was diagonalized
Initial density was built
                      ------------------
                      INITIAL GUESS DONE (   0.3 sec)
                      ------------------
             **** ENERGY FILE WAS UPDATED (orca.en.tmp) ****
Finished Guess after   1.2 sec
Maximum memory used throughout the entire GUESS-calculation: 62.0 MB


           ************************************************************
           *        Program running with 8 parallel MPI-processes     *
           *              working on a common directory               *
           ************************************************************

-------------------------------------------------------------------------------------------
                                      ORCA LEAN-SCF
                              memory conserving SCF solver
-------------------------------------------------------------------------------------------

----------------------------------------D-I-I-S--------------------------------------------
Iteration    Energy (Eh)           Delta-E    RMSDP     MaxDP     DIISErr   Damp  Time(sec)
-------------------------------------------------------------------------------------------
               ***  Starting incremental Fock matrix formation  ***
    1    -112.7847571243271005     0.00e+00  1.82e-04  2.22e-02  3.76e-02  0.850   6.0
    2    -112.7849353006990469    -1.78e-04  1.70e-04  2.08e-02  3.24e-02  0.850   3.1
                               ***Turning on AO-DIIS***
    3    -112.7850897032927122    -1.54e-04  1.53e-04  1.87e-02  2.78e-02  0.850   2.9
    4    -112.7852227071265787    -1.33e-04  8.90e-04  1.09e-01  2.37e-02  0.000   2.9
                              *** Initializing SOSCF ***
---------------------------------------S-O-S-C-F--------------------------------------
Iteration    Energy (Eh)           Delta-E    RMSDP     MaxDP     MaxGrad    Time(sec)
--------------------------------------------------------------------------------------
    5    -112.7860140918754297    -7.91e-04  2.03e-05  2.96e-03  3.41e-04     3.3
               *** Restarting incremental Fock matrix formation ***
    6    -112.7860120781705149     2.01e-06  3.00e-05  4.69e-03  6.44e-05     5.1
    7    -112.7860121454605888    -6.73e-08  7.32e-06  1.16e-03  2.20e-05     3.8
    8    -112.7860121483192444    -2.86e-09  3.99e-06  6.19e-04  9.21e-06     3.2
                 **** Energy Check signals convergence ****

               *****************************************************
               *                     SUCCESS                       *
               *           SCF CONVERGED AFTER   8 CYCLES          *
               *****************************************************

Recomputing exchange energy using gridx3       ... done (    9.261 sec)
Old exchange energy                            :    -13.309319713 Eh
New exchange energy                            :    -13.309253005 Eh
Exchange energy change after final integration :      0.000066708 Eh
Total energy after final integration           :   -112.785945441 Eh
             **** ENERGY FILE WAS UPDATED (orca.en.tmp) ****

----------------
TOTAL SCF ENERGY
----------------

Total Energy       :       -112.78594544057091 Eh           -3069.06160 eV

Components:
Nuclear Repulsion  :         22.14864591080557 Eh             602.69530 eV
Electronic Energy  :       -134.93465805912481 Eh           -3671.75871 eV
One Electron Energy:       -197.53324775523762 Eh           -5375.15294 eV
Two Electron Energy:         62.59858969611281 Eh            1703.39422 eV

Virial components:
Potential Energy   :       -225.32310124997309 Eh           -6131.35330 eV
Kinetic Energy     :        112.53715580940219 Eh            3062.29169 eV
Virial Ratio       :          2.00221073324076

---------------
SCF CONVERGENCE
---------------

  Last Energy change         ...    2.8587e-09  Tolerance :   1.0000e-08
  Last MAX-Density change    ...    6.1885e-04  Tolerance :   1.0000e-07
  Last RMS-Density change    ...    3.9861e-06  Tolerance :   5.0000e-09
  Last DIIS Error            ...    3.4056e-04  Tolerance :   5.0000e-07
  Last Orbital Gradient      ...    9.2052e-06  Tolerance :   1.0000e-05
  Last Orbital Rotation      ...    9.1938e-06  Tolerance :   1.0000e-05


----------------
ORBITAL ENERGIES
----------------

  NO   OCC          E(Eh)            E(eV)
   0   2.0000     -20.665837      -562.3460
   1   2.0000     -11.368743      -309.3592
   2   2.0000      -1.508930       -41.0601
   3   2.0000      -0.802947       -21.8493
   4   2.0000      -0.632306       -17.2059
   5   2.0000      -0.632305       -17.2059
   6   2.0000      -0.556968       -15.1559
   7   0.0000       0.030044         0.8175
   8   0.0000       0.041650         1.1333
   9   0.0000       0.041650         1.1334
  10   0.0000       0.042788         1.1643
  11   0.0000       0.073180         1.9913
  12   0.0000       0.079387         2.1602
  13   0.0000       0.079387         2.1602
  14   0.0000       0.091257         2.4832
  15   0.0000       0.115399         3.1402
  16   0.0000       0.117381         3.1941
  17   0.0000       0.117381         3.1941
*Only the first 10 virtual orbitals were printed.

                    ********************************
                    * MULLIKEN POPULATION ANALYSIS *
                    ********************************

-----------------------
MULLIKEN ATOMIC CHARGES
-----------------------
   0 C :    0.471338
   1 O :   -0.502117
   2 Mg:    0.033403
   3 O :   -0.000583
   4 O :   -0.000588
   5 O :   -0.000594
   6 O :   -0.000494
   7 O :   -0.000365
Sum of atomic charges:    0.0000000

--------------------------------
MULLIKEN REDUCED ORBITAL CHARGES
--------------------------------
  0 C s       :     3.673602  s :     3.673602
      pz      :     0.979370  p :     1.779399
      px      :     0.400022
      py      :     0.400007
      dz2     :     0.009402  d :     0.053444
      dxz     :     0.022005
      dyz     :     0.022036
      dx2y2   :     0.000000
      dxy     :     0.000000
      f0      :     0.005251  f :     0.022526
      f+1     :     0.008640
      f-1     :     0.008634
      f+2     :    -0.000000
      f-2     :    -0.000000
      f+3     :     0.000000
      f-3     :     0.000000
      g0      :    -0.000421  g :    -0.000310
      g+1     :     0.000055
      g-1     :     0.000057
      g+2     :    -0.000000
      g-2     :     0.000000
      g+3     :    -0.000000
      g-3     :    -0.000000
      g+4     :     0.000000
      g-4     :    -0.000000

  1 O s       :     3.916678  s :     3.916678
      pz      :     1.417556  p :     4.501417
      px      :     1.541943
      py      :     1.541918
      dz2     :     0.018962  d :     0.073922
      dxz     :     0.027483
      dyz     :     0.027478
      dx2y2   :     0.000000
      dxy     :     0.000000
      f0      :     0.000496  f :     0.008947
      f+1     :     0.004226
      f-1     :     0.004225
      f+2     :    -0.000000
      f-2     :    -0.000000
      f+3     :    -0.000000
      f-3     :    -0.000000
      g0      :     0.000162  g :     0.001153
      g+1     :     0.000496
      g-1     :     0.000495
      g+2     :    -0.000000
      g-2     :    -0.000000
      g+3     :     0.000000
      g-3     :     0.000000
      g+4     :     0.000000
      g-4     :    -0.000000

  2 Mgs       :    -0.016187  s :    -0.016187
      pz      :    -0.006114  p :    -0.007444
      px      :    -0.000668
      py      :    -0.000662
      dz2     :    -0.000606  d :    -0.005894
      dxz     :    -0.002646
      dyz     :    -0.002641
      dx2y2   :     0.000000
      dxy     :     0.000000
      f0      :    -0.000425  f :    -0.003037
      f+1     :    -0.001308
      f-1     :    -0.001303
      f+2     :    -0.000000
      f-2     :    -0.000000
      f+3     :     0.000000
      f-3     :     0.000000
      g0      :    -0.000514  g :    -0.000841
      g+1     :    -0.000163
      g-1     :    -0.000163
      g+2     :    -0.000000
      g-2     :    -0.000000
      g+3     :    -0.000000
      g-3     :    -0.000000
      g+4     :     0.000000
      g-4     :     0.000000

  3 O s       :     0.000354  s :     0.000354
      pz      :     0.000311  p :     0.000208
      px      :    -0.000044
      py      :    -0.000059
      dz2     :     0.000013  d :    -0.000026
      dxz     :     0.000071
      dyz     :    -0.000017
      dx2y2   :    -0.000066
      dxy     :    -0.000027
      f0      :    -0.000003  f :     0.000046
      f+1     :     0.000032
      f-1     :     0.000000
      f+2     :     0.000018
      f-2     :     0.000000
      f+3     :     0.000000
      f-3     :    -0.000001
      g0      :     0.000000  g :     0.000002
      g+1     :     0.000000
      g-1     :     0.000000
      g+2     :     0.000001
      g-2     :     0.000000
      g+3     :     0.000000
      g-3     :    -0.000000
      g+4     :     0.000000
      g-4     :     0.000000

  4 O s       :     0.000365  s :     0.000365
      pz      :     0.000318  p :     0.000205
      px      :    -0.000060
      py      :    -0.000053
      dz2     :     0.000009  d :    -0.000029
      dxz     :    -0.000017
      dyz     :     0.000073
      dx2y2   :    -0.000067
      dxy     :    -0.000027
      f0      :    -0.000003  f :     0.000046
      f+1     :     0.000001
      f-1     :     0.000031
      f+2     :     0.000018
      f-2     :     0.000000
      f+3     :    -0.000001
      f-3     :     0.000000
      g0      :     0.000000  g :     0.000002
      g+1     :     0.000000
      g-1     :     0.000000
      g+2     :     0.000001
      g-2     :     0.000000
      g+3     :    -0.000000
      g-3     :     0.000000
      g+4     :     0.000000
      g-4     :     0.000000

  5 O s       :     0.000361  s :     0.000361
      pz      :     0.000317  p :     0.000213
      px      :    -0.000044
      py      :    -0.000060
      dz2     :     0.000012  d :    -0.000026
      dxz     :     0.000071
      dyz     :    -0.000017
      dx2y2   :    -0.000066
      dxy     :    -0.000027
      f0      :    -0.000003  f :     0.000045
      f+1     :     0.000031
      f-1     :     0.000000
      f+2     :     0.000017
      f-2     :     0.000000
      f+3     :     0.000000
      f-3     :    -0.000001
      g0      :     0.000000  g :     0.000002
      g+1     :     0.000000
      g-1     :     0.000000
      g+2     :     0.000001
      g-2     :     0.000000
      g+3     :     0.000000
      g-3     :    -0.000000
      g+4     :     0.000000
      g-4     :     0.000000

  6 O s       :     0.000298  s :     0.000298
      pz      :     0.000307  p :     0.000178
      px      :    -0.000060
      py      :    -0.000069
      dz2     :     0.000018  d :    -0.000029
      dxz     :    -0.000017
      dyz     :     0.000066
      dx2y2   :    -0.000069
      dxy     :    -0.000027
      f0      :    -0.000003  f :     0.000045
      f+1     :     0.000000
      f-1     :     0.000031
      f+2     :     0.000017
      f-2     :     0.000000
      f+3     :    -0.000001
      f-3     :     0.000000
      g0      :     0.000000  g :     0.000002
      g+1     :     0.000000
      g-1     :     0.000000
      g+2     :     0.000001
      g-2     :     0.000000
      g+3     :    -0.000000
      g-3     :     0.000000
      g+4     :     0.000000
      g-4     :     0.000000

  7 O s       :     0.000005  s :     0.000005
      pz      :     0.000302  p :     0.000292
      px      :    -0.000005
      py      :    -0.000005
      dz2     :     0.000066  d :     0.000066
      dxz     :     0.000000
      dyz     :     0.000000
      dx2y2   :     0.000000
      dxy     :     0.000000
      f0      :     0.000002  f :     0.000002
      f+1     :    -0.000000
      f-1     :    -0.000000
      f+2     :    -0.000000
      f-2     :    -0.000000
      f+3     :    -0.000000
      f-3     :    -0.000000
      g0      :     0.000000  g :    -0.000000
      g+1     :    -0.000000
      g-1     :    -0.000000
      g+2     :     0.000000
      g-2     :     0.000000
      g+3     :    -0.000000
      g-3     :    -0.000000
      g+4     :    -0.000000
      g-4     :     0.000000



                     *******************************
                     * LOEWDIN POPULATION ANALYSIS *
                     *******************************

----------------------
LOEWDIN ATOMIC CHARGES
----------------------
   0 C :    0.073370
   1 O :    0.429971
   2 Mg:   -0.381231
   3 O :   -0.030179
   4 O :   -0.030179
   5 O :   -0.030180
   6 O :   -0.030178
   7 O :   -0.001394

-------------------------------
LOEWDIN REDUCED ORBITAL CHARGES
-------------------------------
  0 C s       :     2.946772  s :     2.946772
      pz      :     1.113991  p :     1.988381
      px      :     0.437195
      py      :     0.437194
      dz2     :     0.247511  d :     0.561897
      dxz     :     0.157193
      dyz     :     0.157194
      dx2y2   :     0.000000
      dxy     :     0.000000
      f0      :     0.111911  f :     0.293383
      f+1     :     0.090736
      f-1     :     0.090736
      f+2     :     0.000000
      f-2     :     0.000000
      f+3     :     0.000000
      f-3     :     0.000000
      g0      :     0.039792  g :     0.136197
      g+1     :     0.048202
      g-1     :     0.048202
      g+2     :     0.000000
      g-2     :     0.000000
      g+3     :     0.000000
      g-3     :     0.000000
      g+4     :     0.000000
      g-4     :     0.000000

  1 O s       :     3.265382  s :     3.265382
      pz      :     1.591067  p :     3.981672
      px      :     1.195303
      py      :     1.195303
      dz2     :     0.139677  d :     0.211408
      dxz     :     0.035866
      dyz     :     0.035866
      dx2y2   :     0.000000
      dxy     :     0.000000
      f0      :     0.046071  f :     0.083668
      f+1     :     0.018799
      f-1     :     0.018799
      f+2     :     0.000000
      f-2     :     0.000000
      f+3     :     0.000000
      f-3     :     0.000000
      g0      :     0.020198  g :     0.027898
      g+1     :     0.003850
      g-1     :     0.003850
      g+2     :     0.000000
      g-2     :     0.000000
      g+3     :     0.000000
      g-3     :     0.000000
      g+4     :     0.000000
      g-4     :     0.000000

  2 Mgs       :     0.040252  s :     0.040252
      pz      :     0.116172  p :     0.119673
      px      :     0.001750
      py      :     0.001750
      dz2     :     0.123083  d :     0.130590
      dxz     :     0.003753
      dyz     :     0.003753
      dx2y2   :     0.000000
      dxy     :     0.000000
      f0      :     0.064905  f :     0.070904
      f+1     :     0.002999
      f-1     :     0.003000
      f+2     :     0.000000
      f-2     :     0.000000
      f+3     :     0.000000
      f-3     :     0.000000
      g0      :     0.017411  g :     0.019813
      g+1     :     0.001196
      g-1     :     0.001196
      g+2     :     0.000000
      g-2     :     0.000000
      g+3     :     0.000000
      g-3     :     0.000000
      g+4     :     0.000010
      g-4     :     0.000000

  3 O s       :     0.002974  s :     0.002974
      pz      :     0.008968  p :     0.019357
      px      :     0.010244
      py      :     0.000146
      dz2     :     0.000515  d :     0.007185
      dxz     :     0.005927
      dyz     :     0.000009
      dx2y2   :     0.000719
      dxy     :     0.000014
      f0      :     0.000046  f :     0.000636
      f+1     :     0.000323
      f-1     :     0.000000
      f+2     :     0.000262
      f-2     :     0.000000
      f+3     :     0.000005
      f-3     :     0.000000
      g0      :     0.000010  g :     0.000027
      g+1     :     0.000002
      g-1     :     0.000000
      g+2     :     0.000014
      g-2     :     0.000000
      g+3     :     0.000001
      g-3     :     0.000000
      g+4     :     0.000000
      g-4     :     0.000000

  4 O s       :     0.002974  s :     0.002974
      pz      :     0.008968  p :     0.019357
      px      :     0.000146
      py      :     0.010244
      dz2     :     0.000515  d :     0.007185
      dxz     :     0.000009
      dyz     :     0.005927
      dx2y2   :     0.000719
      dxy     :     0.000014
      f0      :     0.000046  f :     0.000636
      f+1     :     0.000000
      f-1     :     0.000323
      f+2     :     0.000262
      f-2     :     0.000000
      f+3     :     0.000000
      f-3     :     0.000005
      g0      :     0.000010  g :     0.000027
      g+1     :     0.000000
      g-1     :     0.000002
      g+2     :     0.000014
      g-2     :     0.000000
      g+3     :     0.000000
      g-3     :     0.000001
      g+4     :     0.000000
      g-4     :     0.000000

  5 O s       :     0.002974  s :     0.002974
      pz      :     0.008968  p :     0.019358
      px      :     0.010244
      py      :     0.000146
      dz2     :     0.000515  d :     0.007185
      dxz     :     0.005927
      dyz     :     0.000009
      dx2y2   :     0.000719
      dxy     :     0.000014
      f0      :     0.000046  f :     0.000636
      f+1     :     0.000323
      f-1     :     0.000000
      f+2     :     0.000262
      f-2     :     0.000000
      f+3     :     0.000005
      f-3     :     0.000000
      g0      :     0.000010  g :     0.000027
      g+1     :     0.000002
      g-1     :     0.000000
      g+2     :     0.000014
      g-2     :     0.000000
      g+3     :     0.000001
      g-3     :     0.000000
      g+4     :     0.000000
      g-4     :     0.000000

  6 O s       :     0.002973  s :     0.002973
      pz      :     0.008968  p :     0.019357
      px      :     0.000146
      py      :     0.010244
      dz2     :     0.000515  d :     0.007185
      dxz     :     0.000009
      dyz     :     0.005927
      dx2y2   :     0.000719
      dxy     :     0.000014
      f0      :     0.000046  f :     0.000636
      f+1     :     0.000000
      f-1     :     0.000323
      f+2     :     0.000262
      f-2     :     0.000000
      f+3     :     0.000000
      f-3     :     0.000005
      g0      :     0.000010  g :     0.000027
      g+1     :     0.000000
      g-1     :     0.000002
      g+2     :     0.000014
      g-2     :     0.000000
      g+3     :     0.000000
      g-3     :     0.000001
      g+4     :     0.000000
      g-4     :     0.000000

  7 O s       :     0.000214  s :     0.000214
      pz      :     0.001122  p :     0.001137
      px      :     0.000007
      py      :     0.000007
      dz2     :     0.000020  d :     0.000025
      dxz     :     0.000002
      dyz     :     0.000002
      dx2y2   :     0.000000
      dxy     :     0.000000
      f0      :     0.000009  f :     0.000011
      f+1     :     0.000001
      f-1     :     0.000001
      f+2     :     0.000000
      f-2     :     0.000000
      f+3     :     0.000000
      f-3     :     0.000000
      g0      :     0.000006  g :     0.000007
      g+1     :     0.000000
      g-1     :     0.000000
      g+2     :     0.000000
      g-2     :     0.000000
      g+3     :     0.000000
      g-3     :     0.000000
      g+4     :     0.000000
      g-4     :     0.000000



                      *****************************
                      * MAYER POPULATION ANALYSIS *
                      *****************************

  NA   - Mulliken gross atomic population
  ZA   - Total nuclear charge
  QA   - Mulliken gross atomic charge
  VA   - Mayer's total valence
  BVA  - Mayer's bonded valence
  FA   - Mayer's free valence

  ATOM       NA         ZA         QA         VA         BVA        FA
  0 C      5.5287     6.0000     0.4713     2.0586     2.0586    -0.0000
  1 O      8.5021     8.0000    -0.5021     2.1104     2.1104     0.0000
  2 Mg    -0.0334     0.0000     0.0334    -0.0676    -0.0676     0.0000
  3 O      0.0006     0.0000    -0.0006     0.0012     0.0012    -0.0000
  4 O      0.0006     0.0000    -0.0006     0.0012     0.0012    -0.0000
  5 O      0.0006     0.0000    -0.0006     0.0012     0.0012    -0.0000
  6 O      0.0005     0.0000    -0.0005     0.0010     0.0010    -0.0000
  7 O      0.0004     0.0000    -0.0004     0.0007     0.0007     0.0000

  Mayer bond orders larger than 0.100000
B(  0-C ,  1-O ) :   2.1156

-------
TIMINGS
-------

Total SCF time: 0 days 0 hours 0 min 40 sec

Total time                  ....      40.757 sec
Sum of individual times     ....      40.853 sec  (100.2%)

SCF preparation             ....       0.926 sec  (  2.3%)
Fock matrix formation       ....      37.018 sec  ( 90.8%)
  Startup                   ....       0.042 sec  (  0.1% of F)
  Split-RI-J                ....       2.743 sec  (  7.4% of F)
  Chain of spheres X        ....      34.070 sec  ( 92.0% of F)
Diagonalization             ....       0.000 sec  (  0.0%)
Density matrix formation    ....       0.169 sec  (  0.4%)
Total Energy calculation    ....       0.081 sec  (  0.2%)
Population analysis         ....       0.144 sec  (  0.4%)
Orbital Transformation      ....       0.446 sec  (  1.1%)
Orbital Orthonormalization  ....       0.000 sec  (  0.0%)
DIIS solution               ....       1.475 sec  (  3.6%)
SOSCF solution              ....       0.589 sec  (  1.4%)
Finished LeanSCF after  40.8 sec

Maximum memory used throughout the entire LEANSCF-calculation: 76.9 MB


           ************************************************************
           *        Program running with 8 parallel MPI-processes     *
           *              working on a common directory               *
           ************************************************************

------------------------------------------------------------------------------
                                ORCA  MP2
------------------------------------------------------------------------------

NOTE: Switching SHARK to Segmented Contraction for MP2
      If that is not desired please turn off the PGCFlag in the input (%shark PGCFlag 0 end)
      Number of basis functions in BAS before restore: 749
      Number of basis functions in BAS after restore : 669
Freezing NCore=4 chemical core electrons

-------------
RI-MP2 ENERGY
-------------
Dimension of the orbital basis            ...  669
Dimension of the AuxC basis               ... 1538
Memory devoted to MP2                     ... 25000 MB
Data format for matrix containers         ... DOUBLE
Compression type for matrix containers    ... UNCOMPRESSED

-----------------------
SHARK RI TRANSFORMATION
-----------------------

Number of basis functions                ...    669
Number of aux functions                  ...   1538
Number of operators                      ...      1
Generation of IJK                        ... NO
Generation of IAK                        ... YES
Generation of ABK                        ... NO
Orbital Range Operator  0:    2-   6 to    7- 668

Aux basis identifier                     ...   AUXC
Contraction scheme used                  ... SEGMENTED
Do orthogonalization                     ... YES
All operator combinations                ... NO
Transpose (ia|K)                         ... NO
Integral generator used                  ... LIBINT
Starting integral generation + trafo...
Half trafo (segmented) done. Total time =  2.2 sec. integrals=  1.4 sec trafo=  0.7 sec
Integral generation and half transformation done (  2.2 sec)

Reading or making V^(-1/2)          ... done (  0.1 sec)
Sorting IAK integrals               ... done (  0.2 sec)

SHARK RI integral transformation done. Total time =  2.5 sec.

Opening buffers                              ... done

Starting loop over batches of integrals:

Operator 0  - window                       ... (  2-  6)x(  7-668)
Operator 0  - Memory available             ... 25000 MB
Operator 0  - Memory needed per MO         ...   7.8 MB
Operator 0  - Number of orbitals per batch ... 1
Operator 0  - Number of batches            ... 1

OPERATOR  0   PASS   0:  MOs     2 ...    2 +    3 ...    3 +    4 ...    4 +    5 ...    5
                            +    6 ...    6
  Reading integrals       ... ok
Time spent in pair loops =     0.258 sec
Deleting buffers (Ka|jb) ...done

-----------------------------------------------
 RI-MP2 CORRELATION ENERGY:     -0.387084465 Eh
-----------------------------------------------


-------
TIMINGS
-------

Total time                :    3.283 sec
Integral trafo            :    2.463 sec ( 75.0%)
I/O of integrals          :    0.003 sec (  0.1%)
K(i,j) operators          :    0.040 sec (  1.2%)
T(i,j) pair energies      :    0.004 sec (  0.1%)
V**(-1/2)                 :    0.562 sec ( 17.1%)


---------------------------------------
MP2 TOTAL ENERGY:     -113.173029905 Eh
---------------------------------------

Maximum memory used throughout the entire MP2-calculation: 79.3 MB

-------------------------   --------------------
FINAL SINGLE POINT ENERGY      -113.173029905346
-------------------------   --------------------



           ************************************************************
           *        Program running with 8 parallel MPI-processes     *
           *              working on a common directory               *
           ************************************************************

------------------------------------------------------------------------------
                              ORCA PROPERTY CALCULATIONS
------------------------------------------------------------------------------

GBWName                                 ... orca.gbw
Number of atoms                         ...      8
Number of basis functions               ...    749
Max core memory                         ...  25000 MB

Electric properties:
Dipole moment                           ... YES
Quadrupole moment                       ...  NO
Static polarizability (Dipole/Dipole)   ...  NO
Static polarizability (Dipole/Quad.)    ...  NO
Static polarizability (Quad./Quad.)     ...  NO
Static polarizability (Velocity)        ...  NO

Atomic electric properties:
Dipole moment                           ...  NO
Quadrupole moment                       ...  NO
Static polarizability                   ...  NO

Choice of electric origin               ... Center of mass
Position of electric origin             ...     0.000000     0.000000     5.850730

General magnetic properties:
Magnetizability                         ...  NO

EPR properties:
g-Tensor (aka g-matrix)                 ...  NO
Zero-Field splitting spin-orbit         ...  NO
Zero-field splitting spin-spin          ...  NO
Hyperfine couplings                     ...  NO (   0 nuclei)
Quadrupole couplings                    ...  NO (   0 nuclei)
Contact density                         ...  NO (   0 nuclei)

NMR properties:
Chemical shifts                         ...  NO (   0 nuclei)
Spin-rotation constants                 ...  NO (   0 nuclei)
Spin-spin couplings                     ...  NO (   0 nuclei,    0 pairs)

Choice of magnetic origin               ... GIAO
Position of magnetic origin             ...     0.000000     0.000000     0.000000

Properties with geometric perturbations:
SCF Hessian                             ...  NO
IR spectrum                             ...  NO
VCD spectrum                            ...  NO
X-ray spectroscopy properties:
SCF XES/XAS/RIXS spectra                ...  NO


-------------
DIPOLE MOMENT
-------------

Method             : SCF
Type of density    : Electron Density
Multiplicity       :   1
Irrep              :   0
Energy             :  -112.7859454405709130 Eh
Relativity type    :
Basis              : AO
                                X                 Y                 Z
Electronic contribution:      0.000000210       0.000000151      -0.147880839
Nuclear contribution   :      0.000000000       0.000000000       0.007272920
                        -----------------------------------------
Total Dipole Moment    :      0.000000210       0.000000151      -0.140607920
                        -----------------------------------------
Magnitude (a.u.)       :      0.140607920
Magnitude (Debye)      :      0.357396929



--------------------
Rotational spectrum
--------------------

Rotational constants in cm-1:             0.000000             1.868304             1.868304
Rotational constants in MHz :             0.000000         56010.355777         56010.355777

Dipole components along the rotational axes:
x,y,z [a.u.] :    -0.140608     0.000000     0.000000
x,y,z [Debye]:    -0.357397     0.000000     0.000001



Dipole moment calculation done in   0.0 sec

Maximum memory used throughout the entire PROP-calculation: 51.6 MB

--------------------------------
SUGGESTED CITATIONS FOR THIS RUN
--------------------------------

Below you find a list of papers that are relevant to this ORCA run
We neither can nor want to force you to cite these papers, but we appreciate if you do
You receive ORCA, which is the product of decades of hard work by many enthusiastic individuals, for free
The only thing we kindly ask in return is that you cite our papers,
We deeply appreciate it, if you show your appreciation for ORCA by not just citing the generic ORCA reference.

Please note that relegating all ORCA citations to the supporting information does *not* help us.
SI sections are not indexed - citations you put there will not count into any citation statistics
But we need these citations in order to attract the funding resources that allow us to do what we are doing

Therefore, if you are a happy ORCA user, please consider citing a few of the papers listed below in the main body of your paper

In addition to the list printed below, the program has created the file orca.bibtex that contains the list in bibtex format
You can import this file easily into all common literature databanks and citation aid programs


List of essential papers. We consider these as the minimum necessary citations

  1. Neese,F.
     Software update: the ORCA program system, version 5.0
     WIRES Comput. Molec. Sci., 2022 12(1)e1606
     doi.org/10.1002/wcms.1606

List of papers to cite with high priority. The work reported in these papers was absolutely
necessary for this run to complete.
Our perspective: the developers of density functionals and basis sets usually get cited in chemistry papers
Good! But without the algorithms to do something with them, the functionals or basis sets would not do anything.
Hence, in our opinion, the algorithm design and method developments papers are equally worthy of getting cited

  1. Neese,F.
     An improvement of the resolution of the identity approximation for the formation of the Coulomb matrix
     J. Comp. Chem., 2003 24(14)1740-1747
     doi.org/10.1002/jcc.10318
  2. Neese,F.; Wennmohs,F.; Hansen,A.; Becker,U.
     Efficient, approximate and parallel Hartree-Fock and hybrid DFT calculations. A 'chain-of-spheres' algorithm for the Hartree-Fock exchange
     Chem. Phys., 2009 356(1-3)98-109
     doi.org/10.1016/j.chemphys.2008.10.036
  3. Kossmann,S.; Neese,F.
     Efficient Structure Optimization with Second-Order Many-Body Perturbation Theory: The RIJCOSX-MP2 Method
     J. Theo. Comp. Chem., 2010 6 2325-2338
     doi.org/10.1021/ct100199k
  4. Helmich-Paris,B.; de Souza,B.; Neese,F.; Izsák,R.
     An improved chain of spheres for exchange algorithm
     J. Chem. Phys., 2021 155 104109
     doi.org/doi: 10.1063/5.0058766.
  5. Neese,F.
     The SHARK Integral Generation and Digestion System
     J. Comp. Chem., 2022  1-16
     doi.org/10.1002/jcc.26942

List of suggested additional citations. These are papers that are important in the 'surrounding' of
of this run, or papers that preceded the highly important papers. If you like your results we are grateful for a citation.

  1. Izsak,R.; Neese,F.
     An overlap fitted chain of spheres exchange method
     J. Chem. Phys., 2011 135 144105
     doi.org/10.1063/1.3646921
  2. Izsak,R.; Hansen,A.; Neese,F.
     The resolution of identity and chain of spheres approximations for the LPNO-CCSD singles Fock term
     Molec. Phys., 2012 110 2413-2417
     doi.org/10.1080/00268976.2012.687466
  3. Neese,F.
     The ORCA program system
     WIRES Comput. Molec. Sci., 2012 2(1)73-78
     doi.org/10.1002/wcms.81
  4. Izsak,R.; Neese,F.; Klopper,W.
     Robust fitting techniques in the chain of spheres approximation to the Fock exchange: The role of the complementary space
     J. Chem. Phys., 2013 139
     doi.org/10.1063/1.4819264
  5. Neese,F.
     Software update: the ORCA program system, version 4.0
     WIRES Comput. Molec. Sci., 2018 8(1)1-6
     doi.org/10.1002/wcms.1327
  6. Neese,F.; Wennmohs,F.; Becker,U.; Riplinger,C.
     The ORCA quantum chemistry program package
     J. Chem. Phys., 2020 152 Art. No. L224108
     doi.org/10.1063/5.0004608

List of optional additional citations

  1. Neese,F.
     Approximate second-order SCF convergence for spin unrestricted wavefunctions
     Chem. Phys. Lett., 2000 325(1-3)93-98
     doi.org/10.1016/s0009-2614(00)00662-x

Timings for individual modules:

Sum of individual times          ...       57.408 sec (=   0.957 min)
Startup calculation              ...        6.455 sec (=   0.108 min)  11.2 %
SCF iterations                   ...       43.355 sec (=   0.723 min)  75.5 %
Property calculations            ...        1.689 sec (=   0.028 min)   2.9 %
MP2 module                       ...        5.909 sec (=   0.098 min)  10.3 %
                             ****ORCA TERMINATED NORMALLY****
TOTAL RUN TIME: 0 days 0 hours 0 minutes 59 seconds 290 msec
