
                                 *****************
                                 * O   R   C   A *
                                 *****************

                                            #,
                                            ###
                                            ####
                                            #####
                                            ######
                                           ########,
                                     ,,################,,,,,
                               ,,#################################,,
                          ,,##########################################,,
                       ,#########################################, ''#####,
                    ,#############################################,,   '####,
                  ,##################################################,,,,####,
                ,###########''''           ''''###############################
              ,#####''   ,,,,##########,,,,          '''####'''          '####
            ,##' ,,,,###########################,,,                        '##
           ' ,,###''''                  '''############,,,
         ,,##''                                '''############,,,,        ,,,,,,###''
      ,#''                                            '''#######################'''
     '                                                          ''''####''''
             ,#######,   #######,   ,#######,      ##
            ,#'     '#,  ##    ##  ,#'     '#,    #''#        ,####,   ,####,
            ##       ##  ##   ,#'  ##            #'  '#       #'       #'  '#
            ##       ##  #######   ##           ,######,      #####,   #    #
            '#,     ,#'  ##    ##  '#,     ,#' ,#      #,     #,   #   #,  ,#
             '#######'   ##     ##  '#######'  #'      '#     '####' # '####'



                #########################################################
                #                        -***-                          #
                #          Department of theory and spectroscopy        #
                #                                                       #
                #                      Frank Neese                      #
                #                                                       #
                #     Directorship, Architecture, Infrastructure        #
                #                    SHARK, DRIVERS                     #
                #        Core code/Algorithms in most modules           #
                #                                                       #
                #        Max Planck Institute fuer Kohlenforschung      #
                #                Kaiser Wilhelm Platz 1                 #
                #                 D-45470 Muelheim/Ruhr                 #
                #                      Germany                          #
                #                                                       #
                #                  All rights reserved                  #
                #                        -***-                          #
                #########################################################


                         Program Version 6.0.0  -   RELEASE  -


 With contributions from (in alphabetic order):
   Daniel Aravena         : Magnetic Suceptibility
   Michael Atanasov       : Ab Initio Ligand Field Theory (pilot matlab implementation)
   Alexander A. Auer      : GIAO ZORA, VPT2 properties, NMR spectrum
   Ute Becker             : All parallelization in ORCA, NUMFREQ, NUMCALC
   Giovanni Bistoni       : ED, misc. LED, open-shell LED, HFLD
   Martin Brehm           : Molecular dynamics
   Dmytro Bykov           : pre 5.0 version of the SCF Hessian
   Marcos Casanova-Páez   : Triplet and SCS-CIS(D). UHF-(DLPNO)-IP/EA/STEOM-CCSD. UHF-CVS-IP/STEOM-CCSD
   Vijay G. Chilkuri      : MRCI spin determinant printing, contributions to CSF-ICE
   Pauline Colinet        : FMM embedding
   Dipayan Datta          : RHF DLPNO-CCSD density
   Achintya Kumar Dutta   : EOM-CC, STEOM-CC
   Nicolas Foglia         : Exact transition moments, OPA infrastructure, MCD improvements
   Dmitry Ganyushin       : Spin-Orbit,Spin-Spin,Magnetic field MRCI
   Miquel Garcia          : C-PCM and meta-GGA Hessian, CCSD/C-PCM, Gaussian charge scheme
   Tiago L. C. Gouveia    : GS-ROHF, GS-ROCIS
   Yang Guo               : DLPNO-NEVPT2, F12-NEVPT2, CIM, IAO-localization
   Andreas Hansen         : Spin unrestricted coupled pair/coupled cluster methods
   Ingolf Harden          : AUTO-CI MPn and infrastructure
   Benjamin Helmich-Paris : MC-RPA, TRAH-(SCF,CASSCF), AVAS, COSX integrals, SCF dyn. polar.
   Lee Huntington         : MR-EOM, pCC
   Robert Izsak           : Overlap fitted RIJCOSX, COSX-SCS-MP3, EOM
   Riya Kayal             : Wick's Theorem for AUTO-CI, AUTO-CI UHF-CCSDT
   Emily Kempfer          : AUTO-CI, RHF CISDT and CCSDT
   Christian Kollmar      : KDIIS, OOCD, Brueckner-CCSD(T), CCSD density, CASPT2, CASPT2-K, improved NEVPT2
   Axel Koslowski         : Symmetry handling
   Simone Kossmann        : Meta GGA functionals, TD-DFT gradient, OOMP2, (MP2 Hessian; deprecated post 5.0)
   Lucas Lang             : DCDCAS
   Marvin Lechner         : AUTO-CI (C++ implementation), FIC-MRCC
   Spencer Leger          : CASSCF response
   Dagmar Lenk            : GEPOL surface, SMD, ORCA-2-JSON
   Dimitrios Liakos       : Extrapolation schemes; Compound Job, initial MDCI parallelization
   Dimitrios Manganas     : Further ROCIS development; embedding schemes. LFT, Crystal Embedding
   Dimitrios Pantazis     : SARC Basis sets
   Anastasios Papadopoulos: AUTO-CI, single reference methods and gradients
   Taras Petrenko         : pre 6.0 DFT Hessian and TD-DFT gradient, (ASA, deprecated), ECA, 1-Electron XAS/XES, NRVS
   Peter Pinski           : DLPNO-MP2, DLPNO-MP2 Gradient
   Christoph Reimann      : Effective Core Potentials
   Marius Retegan         : Local ZFS, SOC
   Christoph Riplinger    : Optimizer, TS searches, QM/MM, DLPNO-CCSD(T), (RO)-DLPNO pert. Triples
   Michael Roemelt        : Original ROCIS implementation
   Masaaki Saitow         : Open-shell DLPNO-CCSD energy and density
   Barbara Sandhoefer     : DKH picture change effects
   Kantharuban Sivalingam : CASSCF convergence/infrastructure, NEVPT2 and variants, FIC-MRCI
   Bernardo de Souza      : ESD, SOC TD-DFT
   Georgi Stoychev        : AutoAux, RI-MP2 NMR, DLPNO-MP2 response, X2C
   Van Anh Tran           : RI-MP2 g-tensors
   Willem Van den Heuvel  : Paramagnetic NMR
   Zikuan Wang            : NOTCH, Electric field optimization
   Frank Wennmohs         : Technical directorship and infrastructure
   Hang Xu                : AUTO-CI-Response properties


 We gratefully acknowledge several colleagues who have allowed us to
 interface, adapt or use parts of their codes:
   Stefan Grimme, W. Hujo, H. Kruse, P. Pracht,  : VdW corrections, initial TS optimization,
                  C. Bannwarth, S. Ehlert,         DFT functionals, gCP, sTDA/sTD-DF
                  L. Wittmann, M. Mueller
   Ed Valeev, F. Pavosevic, A. Kumar             : LibInt (2-el integral package), F12 methods
   Garnet Chan, S. Sharma, J. Yang, R. Olivares  : DMRG
   Ulf Ekstrom                                   : XCFun DFT Library
   Mihaly Kallay                                 : mrcc  (arbitrary order and MRCC methods)
   Frank Weinhold                                : gennbo (NPA and NBO analysis)
   Simon Mueller                                 : openCOSMO-RS
   Christopher J. Cramer and Donald G. Truhlar   : smd solvation model
   Lars Goerigk                                  : TD-DFT with DH, B97 family of functionals
   V. Asgeirsson, H. Jonsson                     : NEB implementation
   FAccTs GmbH                                   : IRC, NEB, NEB-TS, DLPNO-Multilevel, CI-OPT
                                                   MM, QMMM, 2- and 3-layer-ONIOM, Crystal-QMMM,
                                                   LR-CPCM, SF, NACMEs, symmetry and pop. for TD-DFT,
                                                   nearIR, NL-DFT gradient (VV10), updates on ESD,
                                                   ML-optimized integration grids, MBIS, APM,
                                                   GOAT, DOCKER, SOLVATOR, interface openCOSMO-RS
   S Lehtola, MJT Oliveira, MAL Marques          : LibXC Library
   Liviu Ungur et al                             : ANISO software


 Your calculation uses the libint2 library for the computation of 2-el integrals
 For citations please refer to: http://libint.valeyev.net

 Your ORCA version has been built with support for libXC version: 6.2.2
 For citations please refer to: https://libxc.gitlab.io

 This ORCA versions uses:
   CBLAS   interface :  Fast vector & matrix operations
   LAPACKE interface :  Fast linear algebra routines
   SCALAPACK package :  Parallel linear algebra routines
   Shared memory     :  Shared parallel matrices
   BLAS/LAPACK       :  OpenBLAS 0.3.27  USE64BITINT DYNAMIC_ARCH NO_AFFINITY Haswell SINGLE_THREADED
        Core in use  :  Haswell
   Copyright (c) 2011-2014, The OpenBLAS Project


NOTE: MaxCore=25000 MB was set to SCF,MP2,MDCI,CIPSI,MRCI and CIS
      => If you want to overwrite this, your respective input block should be placed after the MaxCore statement
Setting NCore(C ) from 2 to 2
Setting NCore(Mg) from 2 to 2
Setting NCore(O ) from 2 to 2
SCAN-COORDS
================================================================================

----- Orbital basis set information -----
Your calculation utilizes the basis: def2-SVP
   F. Weigend and R. Ahlrichs, Phys. Chem. Chem. Phys. 7, 3297 (2005).

The basis set includes element-specific modifications.

Your calculation utilizes the basis: aug-cc-pVQZ
    H, B-Ne : Obtained from the ccRepo (grant-hill.group.shef.ac.uk/ccrepo) Feb. 2017
              R. A. Kendall, T. H. Dunning, Jr., R. J. Harrison, J. Chem. Phys. 96, 6796 (1992)
         He : Obtained from the ccRepo (grant-hill.group.shef.ac.uk/ccrepo) Feb. 2017
              D. E. Woon, T. H. Dunning, Jr., J. Chem. Phys. 100, 2975 (1994)
  Li-Be, Na : Obtained from the ccRepo (grant-hill.group.shef.ac.uk/ccrepo) Feb. 2017
              B. P. Prascher, D. E. Woon, K. A. Peterson, T. H. Dunning, Jr., A. K. Wilson, Theor. Chem. Acc. 128, 69 (2011)
         Mg : Obtained from the Peterson Research Group Website (tyr0.chem.wsu.edu/~kipeters) Feb. 2017
              B. P. Prascher, D. E. Woon, K. A. Peterson, T. H. Dunning, Jr., A. K. Wilson, Theor. Chem. Acc. 128, 69 (2011)
      Al-Ar : Obtained from the ccRepo (grant-hill.group.shef.ac.uk/ccrepo) Feb. 2017
              D. E. Woon, T. H. Dunning, Jr., J. Chem. Phys. 98, 1358 (1993)
      Sc-Zn : Obtained from the ccRepo (grant-hill.group.shef.ac.uk/ccrepo) Feb. 2017
              N. B. Balabanov, K. A. Peterson, J. Chem. Phys. 123, 064107 (2005)
              N. B. Balabanov, K. A. Peterson, J. Chem. Phys. 125, 074110 (2006)
      Ga-Kr : Obtained from the ccRepo (grant-hill.group.shef.ac.uk/ccrepo) Feb. 2017
              A. K. Wilson, D. E. Woon, K. A. Peterson, T. H. Dunning, Jr., J. Chem. Phys. 110, 7667 (1999)

Your calculation utilizes the basis: cc-pwCVQZ
             H : cc-pVQZ. Obtained from the ccRepo (grant-hill.group.shef.ac.uk/ccrepo) Feb. 2017
                 T. H. Dunning, Jr., J. Chem. Phys. 90, 1007 (1989)
            He : cc-pVQZ. Obtained from the ccRepo (grant-hill.group.shef.ac.uk/ccrepo) Feb. 2017
                 D. E. Woon, T. H. Dunning, Jr., J. Chem. Phys. 100, 2975 (1994)
  Li-Be, Na-Mg : Obtained from the ccRepo (grant-hill.group.shef.ac.uk/ccrepo) Feb. 2017
                 B. P. Prascher, D. E. Woon, K. A. Peterson, T. H. Dunning, Jr., A. K. Wilson, Theor. Chem. Acc. 128, 69 (2011)
          B-Ne : Obtained from the ccRepo (grant-hill.group.shef.ac.uk/ccrepo) Feb. 2017
                 K. A. Peterson, T. H. Dunning, Jr., J. Chem. Phys. 117, 10548 (2002)
         Al-Ar : Obtained from the EMSL Basis Set Exchange (bse.pnl.gov) Feb. 2017
                 K. A. Peterson, T. H. Dunning, Jr., J. Chem. Phys. 117, 10548 (2002)
            Ca : Obtained from the Peterson Research Group Website (tyr0.chem.wsu.edu/~kipeters) Feb. 2017
                 J. Koput, K. A. Peterson, J. Phys. Chem. 106, 9595 (2002)
         Sc-Zn : Obtained from the ccRepo (grant-hill.group.shef.ac.uk/ccrepo) Feb. 2017
                 N. B. Balabanov, K. A. Peterson, J. Chem. Phys. 123, 064107 (2005)
                 N. B. Balabanov, K. A. Peterson, J. Chem. Phys. 125, 074110 (2006)
         Ga-Kr : Obtained from the Peterson Research Group Website (tyr0.chem.wsu.edu/~kipeters) Feb. 2017
                 K. A. Peterson, K. E. Yousaf, J. Chem. Phys. 133, 174116 (2010)
                 N. J. DeYonker, K. A. Peterson, A. K. Wilson, J. Phys. Chem. A 111, 11383 (2007)

----- AuxJ basis set information -----
Your calculation utilizes the auxiliary basis: def2/J
   F. Weigend, Phys. Chem. Chem. Phys. 8, 1057 (2006).

----- AuxC basis set information -----
The basis set includes element-specific modifications.

Your calculation utilizes the auxiliary basis: aug-cc-pVQZ/C
  H-He, B-F, Al-Ar, Ga-Kr : Obtained from the EMSL Basis Set Exchange (bse.pnl.gov) Feb. 2017
                            F. Weigend, A. Kohn, C. Hattig, J. Chem. Phys. 116, 3175 (2002)
                   Be, Mg : Obtained from the TURBOMOLE 7.0 basis set library
                            C. Haettig, Phys. Chem. Chem. Phys. 7, 59 (2005)
                       Ne : Obtained from the EMSL Basis Set Exchange (bse.pnl.gov) Feb. 2017
                            C. Haettig, Phys. Chem. Chem. Phys. 7, 59 (2005)
                            F. Weigend, A. Kohn, C. Hattig, J. Chem. Phys. 116, 3175 (2002)
                    Sc-Zn : Obtained from the EMSL Basis Set Exchange (bse.pnl.gov) Feb. 2017
                            D. H. Bross, J. G. Hill, H. J. Werner, K. A. Peterson, J. Chem. Phys. 139, 094302 (2013)

Your calculation utilizes the AutoAux generation procedure.
  G. L. Stoychev, A. A. Auer, F. Neese, J. Chem. Theory Comput. 13, 554 (2017)

================================================================================
                                        WARNINGS
                       Please study these warnings very carefully!
================================================================================

WARNING: Old DensityContainer found on disk!
         Will remove this file -
         If you want to keep old densities, please start your calculation with a different basename.


WARNING: No MP2 level density has been requested!
         To calculate MP2 level properties use
         %mp2 Density relaxed end
         or
         %mp2 Density unrelaxed end

WARNING: Post HF methods need fully converged wavefunctions
  ===> : Setting SCFConvForced true
         You can overwrite this default with %scf ConvForced false


================================================================================
                                       INPUT FILE
================================================================================
NAME = orca.inp
|  1> ! TightSCF RI-MP2 RIJCOSX SlowConv DIIS
|  2> %pal nprocs 8 end
|  3> %maxcore 25000
|  4> %method
|  5> Method hf
|  6> RI on
|  7> RunTyp Energy
|  8> NewNCore C 2 end
|  9> NewNCore Mg 2 end
| 10> NewNCore O 2 end
| 11> end
| 12> %basis
| 13> NewGTO C "aug-cc-pVQZ" end
| 14> NewGTO Mg "cc-pwCVQZ" end
| 15> NewGTO O "aug-cc-pVQZ" end
| 16> Aux "def2/J"
| 17> NewAuxCGTO C "aug-cc-pVQZ/C" end
| 18> NewAuxCGTO Mg "AutoAux" end
| 19> NewAuxCGTO O "aug-cc-pVQZ/C" end
| 20> end
| 21> %scf
| 22> HFTyp rhf
| 23> SCFMode Direct
| 24> sthresh 1e-6
| 25> AutoTRAHIter 60
| 26> MaxIter 1000
| 27> end
| 28> %coords
| 29> CTyp xyz
| 30> Mult 1
| 31> Units angs
| 32> Charge 0
| 33> coords
| 34> C                       0.00000000000    0.00000000000    2.44102235837
| 35> O                       0.00000000000    0.00000000000    3.58784217303
| 36> Mg:                     0.00000000000    0.00000000000    0.00000000000
| 37> O:                     -2.12018425659    0.00000000000    0.00567209089
| 38> O:                      0.00000000000    2.12018425659    0.00567209089
| 39> O:                      2.12018425659    0.00000000000    0.00567209089
| 40> O:                      0.00000000000   -2.12018425659    0.00567209089
| 41> O:                      0.00000000000    0.00000000000   -2.14129966123
| 42> Mg:                    -2.11144262254    2.11144262254   -0.04367284424
| 43> Mg:                     2.11144262254    2.11144262254   -0.04367284424
| 44> Mg:                     2.11144262254   -2.11144262254   -0.04367284424
| 45> Mg:                    -2.11144262254   -2.11144262254   -0.04367284424
| 46> O:                     -2.11070451449    2.11070451449   -2.14923989662
| 47> O:                      2.11070451449    2.11070451449   -2.14923989662
| 48> O:                      2.11070451449   -2.11070451449   -2.14923989662
| 49> O:                     -2.11070451449   -2.11070451449   -2.14923989662
| 50> O:                     -4.22049352791    2.11209139723    0.00772802266
| 51> O:                     -2.11209139723    4.22049352791    0.00772802266
| 52> O:                      2.11209139723    4.22049352791    0.00772802266
| 53> O:                      4.22049352791    2.11209139723    0.00772802266
| 54> O:                      4.22049352791   -2.11209139723    0.00772802266
| 55> O:                      2.11209139723   -4.22049352791    0.00772802266
| 56> O:                     -2.11209139723   -4.22049352791    0.00772802266
| 57> O:                     -4.22049352791   -2.11209139723    0.00772802266
| 58> end
| 59> end
| 60>
| 61>
| 62>                          ****END OF INPUT****
================================================================================

                       ****************************
                       * Single Point Calculation *
                       ****************************

---------------------------------
CARTESIAN COORDINATES (ANGSTROEM)
---------------------------------
  C      0.000000    0.000000    2.441022
  O      0.000000    0.000000    3.587842
  Mg     0.000000    0.000000    0.000000
  O     -2.120184    0.000000    0.005672
  O      0.000000    2.120184    0.005672
  O      2.120184    0.000000    0.005672
  O      0.000000   -2.120184    0.005672
  O      0.000000    0.000000   -2.141300
  Mg    -2.111443    2.111443   -0.043673
  Mg     2.111443    2.111443   -0.043673
  Mg     2.111443   -2.111443   -0.043673
  Mg    -2.111443   -2.111443   -0.043673
  O     -2.110705    2.110705   -2.149240
  O      2.110705    2.110705   -2.149240
  O      2.110705   -2.110705   -2.149240
  O     -2.110705   -2.110705   -2.149240
  O     -4.220494    2.112091    0.007728
  O     -2.112091    4.220494    0.007728
  O      2.112091    4.220494    0.007728
  O      4.220494    2.112091    0.007728
  O      4.220494   -2.112091    0.007728
  O      2.112091   -4.220494    0.007728
  O     -2.112091   -4.220494    0.007728
  O     -4.220494   -2.112091    0.007728

----------------------------
CARTESIAN COORDINATES (A.U.)
----------------------------
  NO LB      ZA    FRAG     MASS         X           Y           Z
   0 C     6.0000    0    12.011    0.000000    0.000000    4.612864
   1 O     8.0000    0    15.999    0.000000    0.000000    6.780039
   2 Mg    0.0000    0     0.000    0.000000    0.000000    0.000000
   3 O     0.0000    0     0.000   -4.006568    0.000000    0.010719
   4 O     0.0000    0     0.000    0.000000    4.006568    0.010719
   5 O     0.0000    0     0.000    4.006568    0.000000    0.010719
   6 O     0.0000    0     0.000    0.000000   -4.006568    0.010719
   7 O     0.0000    0     0.000    0.000000    0.000000   -4.046470
   8 Mg    0.0000    0     0.000   -3.990048    3.990048   -0.082530
   9 Mg    0.0000    0     0.000    3.990048    3.990048   -0.082530
  10 Mg    0.0000    0     0.000    3.990048   -3.990048   -0.082530
  11 Mg    0.0000    0     0.000   -3.990048   -3.990048   -0.082530
  12 O     0.0000    0     0.000   -3.988653    3.988653   -4.061475
  13 O     0.0000    0     0.000    3.988653    3.988653   -4.061475
  14 O     0.0000    0     0.000    3.988653   -3.988653   -4.061475
  15 O     0.0000    0     0.000   -3.988653   -3.988653   -4.061475
  16 O     0.0000    0     0.000   -7.975577    3.991274    0.014604
  17 O     0.0000    0     0.000   -3.991274    7.975577    0.014604
  18 O     0.0000    0     0.000    3.991274    7.975577    0.014604
  19 O     0.0000    0     0.000    7.975577    3.991274    0.014604
  20 O     0.0000    0     0.000    7.975577   -3.991274    0.014604
  21 O     0.0000    0     0.000    3.991274   -7.975577    0.014604
  22 O     0.0000    0     0.000   -3.991274   -7.975577    0.014604
  23 O     0.0000    0     0.000   -7.975577   -3.991274    0.014604

--------------------------------
INTERNAL COORDINATES (ANGSTROEM)
--------------------------------
 C      0   0   0     0.000000000000     0.00000000     0.00000000
 O      1   0   0     1.146819814660     0.00000000     0.00000000
 Mg     1   2   0     2.441022358370   179.99999915     0.00000000
 O      3   1   2     2.120191843798    89.84671800     0.00000000
 O      3   1   2     2.120191843798    89.84671800     0.00000000
 O      3   1   2     2.120191843798    89.84671800     0.00000000
 O      3   1   2     2.120191843798    89.84671800     0.00000000
 O      3   1   2     2.141299661230   179.99999852     0.00000000
 Mg     4   3   1     2.112037236193    89.75927407    91.33813376
 Mg     5   3   1     2.112037236193    89.75927407    91.33813376
 Mg     6   3   1     2.112037236193    89.75927407    91.33813376
 Mg     4   3   1     2.112037236193    89.75927407   268.66186624
 O      9   4   3     2.105567311124    91.31875951    89.83212722
 O     10   5   3     2.105567311124    91.31875951    89.83212722
 O     11   6   3     2.105567311124    91.31875951    89.83212722
 O     12   4   3     2.105567311124    91.31875951   270.16787278
 O      9   4   3     2.109677271876    89.74792452   181.24291387
 O      9   4   3     2.109677271876   177.25328254   264.52840758
 O     10   5   3     2.109677271876    89.74792452   181.24291387
 O     10   5   3     2.109677271876   177.25328254   264.52840758
 O     11   6   3     2.109677271876    89.74792452   181.24291387
 O     11   6   3     2.109677271876   177.25328254   264.52840758
 O     12   4   3     2.109677271876   177.25328254    95.47159242
 O     12   4   3     2.109677271876    89.74792452   178.75708613

---------------------------
INTERNAL COORDINATES (A.U.)
---------------------------
 C      0   0   0     0.000000000000     0.00000000     0.00000000
 O      1   0   0     2.167175374662     0.00000000     0.00000000
 Mg     1   2   0     4.612863744098   179.99999915     0.00000000
 O      3   1   2     4.006581936152    89.84671800     0.00000000
 O      3   1   2     4.006581936152    89.84671800     0.00000000
 O      3   1   2     4.006581936152    89.84671800     0.00000000
 O      3   1   2     4.006581936152    89.84671800     0.00000000
 O      3   1   2     4.046469930383   179.99999852     0.00000000
 Mg     4   3   1     3.991171961049    89.75927407    91.33813376
 Mg     5   3   1     3.991171961049    89.75927407    91.33813376
 Mg     6   3   1     3.991171961049    89.75927407    91.33813376
 Mg     4   3   1     3.991171961049    89.75927407   268.66186624
 O      9   4   3     3.978945574562    91.31875951    89.83212722
 O     10   5   3     3.978945574562    91.31875951    89.83212722
 O     11   6   3     3.978945574562    91.31875951    89.83212722
 O     12   4   3     3.978945574562    91.31875951   270.16787278
 O      9   4   3     3.986712274803    89.74792452   181.24291387
 O      9   4   3     3.986712274803   177.25328254   264.52840758
 O     10   5   3     3.986712274803    89.74792452   181.24291387
 O     10   5   3     3.986712274803   177.25328254   264.52840758
 O     11   6   3     3.986712274803    89.74792452   181.24291387
 O     11   6   3     3.986712274803   177.25328254   264.52840758
 O     12   4   3     3.986712274803   177.25328254    95.47159242
 O     12   4   3     3.986712274803    89.74792452   178.75708613

---------------------
BASIS SET INFORMATION
---------------------
There are 3 groups of distinct atoms

 Group   1 Type C   : 22s7p4d3f2g contracted to 6s5p4d3f2g pattern {991111/31111/1111/111/11}
 Group   2 Type O   : 22s7p4d3f2g contracted to 6s5p4d3f2g pattern {991111/31111/1111/111/11}
 Group   3 Type Mg  : 45s24p6d4f2g contracted to 9s8p6d4f2g pattern {131313111111/99111111/111111/1111/11}

Atom   0C    basis set group =>   1
Atom   1O    basis set group =>   2
Atom   2Mg   basis set group =>   3
Atom   3O    basis set group =>   2
Atom   4O    basis set group =>   2
Atom   5O    basis set group =>   2
Atom   6O    basis set group =>   2
Atom   7O    basis set group =>   2
Atom   8Mg   basis set group =>   3
Atom   9Mg   basis set group =>   3
Atom  10Mg   basis set group =>   3
Atom  11Mg   basis set group =>   3
Atom  12O    basis set group =>   2
Atom  13O    basis set group =>   2
Atom  14O    basis set group =>   2
Atom  15O    basis set group =>   2
Atom  16O    basis set group =>   2
Atom  17O    basis set group =>   2
Atom  18O    basis set group =>   2
Atom  19O    basis set group =>   2
Atom  20O    basis set group =>   2
Atom  21O    basis set group =>   2
Atom  22O    basis set group =>   2
Atom  23O    basis set group =>   2
---------------------------------
AUXILIARY/J BASIS SET INFORMATION
---------------------------------
There are 3 groups of distinct atoms

 Group   1 Type C   : 12s5p4d2f1g contracted to 6s4p3d1f1g pattern {711111/2111/211/2/1}
 Group   2 Type O   : 12s5p4d2f1g contracted to 6s4p3d1f1g pattern {711111/2111/211/2/1}
 Group   3 Type Mg  : 14s5p5d2f1g contracted to 8s4p4d1f1g pattern {71111111/2111/2111/2/1}

Atom   0C    basis set group =>   1
Atom   1O    basis set group =>   2
Atom   2Mg   basis set group =>   3
Atom   3O    basis set group =>   2
Atom   4O    basis set group =>   2
Atom   5O    basis set group =>   2
Atom   6O    basis set group =>   2
Atom   7O    basis set group =>   2
Atom   8Mg   basis set group =>   3
Atom   9Mg   basis set group =>   3
Atom  10Mg   basis set group =>   3
Atom  11Mg   basis set group =>   3
Atom  12O    basis set group =>   2
Atom  13O    basis set group =>   2
Atom  14O    basis set group =>   2
Atom  15O    basis set group =>   2
Atom  16O    basis set group =>   2
Atom  17O    basis set group =>   2
Atom  18O    basis set group =>   2
Atom  19O    basis set group =>   2
Atom  20O    basis set group =>   2
Atom  21O    basis set group =>   2
Atom  22O    basis set group =>   2
Atom  23O    basis set group =>   2
---------------------------------
AUXILIARY/C BASIS SET INFORMATION
---------------------------------
There are 3 groups of distinct atoms

 Group   1 Type C   : 9s8p7d6f4g2h contracted to 9s8p7d6f4g2h pattern {111111111/11111111/1111111/111111/1111/11}
 Group   2 Type O   : 9s8p7d6f4g2h contracted to 9s8p7d6f4g2h pattern {111111111/11111111/1111111/111111/1111/11}
 Group   3 Type Mg  : 19s17p16d9f8g7h contracted to 19s17p16d9f8g7h pattern {1111111111111111111/11111111111111111/1111111111111111/111111111/11111111/1111111}

Atom   0C    basis set group =>   1
Atom   1O    basis set group =>   2
Atom   2Mg   basis set group =>   3
Atom   3O    basis set group =>   2
Atom   4O    basis set group =>   2
Atom   5O    basis set group =>   2
Atom   6O    basis set group =>   2
Atom   7O    basis set group =>   2
Atom   8Mg   basis set group =>   3
Atom   9Mg   basis set group =>   3
Atom  10Mg   basis set group =>   3
Atom  11Mg   basis set group =>   3
Atom  12O    basis set group =>   2
Atom  13O    basis set group =>   2
Atom  14O    basis set group =>   2
Atom  15O    basis set group =>   2
Atom  16O    basis set group =>   2
Atom  17O    basis set group =>   2
Atom  18O    basis set group =>   2
Atom  19O    basis set group =>   2
Atom  20O    basis set group =>   2
Atom  21O    basis set group =>   2
Atom  22O    basis set group =>   2
Atom  23O    basis set group =>   2

Checking for AutoStart:
The File: orca.gbw exists
Trying to determine its content:
     ... Fine, the file contains calculation information
     ... Fine, the calculation information was read
     ... Fine, the file contains a basis set
     ... Fine, the basis set was read
     ... Fine, the file contains a geometry
     ... Fine, the geometry was read
     ... Fine, the file contains a set of orbitals
     ... Fine, the orbitals can be read
     => possible old guess file was deleted
     => GBW file was renamed to GES file
     => GES file is set as startup file
     => Guess is set to MORead
     ... now leaving AutoStart



           ************************************************************
           *        Program running with 8 parallel MPI-processes     *
           *              working on a common directory               *
           ************************************************************
------------------------------------------------------------------------------
                             ORCA STARTUP CALCULATIONS
                           -- RI-GTO INTEGRALS CHOSEN --
------------------------------------------------------------------------------
------------------------------------------------------------------------------
                   ___
                  /   \      - P O W E R E D   B Y -
                 /     \
                 |  |  |   _    _      __       _____    __    __
                 |  |  |  | |  | |    /  \     |  _  \  |  |  /  |
                  \  \/   | |  | |   /    \    | | | |  |  | /  /
                 / \  \   | |__| |  /  /\  \   | |_| |  |  |/  /
                |  |  |   |  __  | /  /__\  \  |    /   |      \
                |  |  |   | |  | | |   __   |  |    \   |  |\   \
                \     /   | |  | | |  |  |  |  | |\  \  |  | \   \
                 \___/    |_|  |_| |__|  |__|  |_| \__\ |__|  \__/

                      - O R C A' S   B I G   F R I E N D -
                                      &
                       - I N T E G R A L  F E E D E R -

 v1 FN, 2020, v2 2021, v3 2022-2024
------------------------------------------------------------------------------


----------------------
SHARK INTEGRAL PACKAGE
----------------------

Number of atoms                             ...     24
Number of basis functions                   ...   2353
Number of shells                            ...    743
Maximum angular momentum                    ...      4
Integral batch strategy                     ... SHARK/LIBINT Hybrid
RI-J (if used) integral strategy            ... SPLIT-RIJ (Revised 2003 algorithm where possible)
Printlevel                                  ...      1
Contraction scheme used                     ... PARTIAL GENERAL contraction
Prescreening option                         ... SCHWARTZ
   Thresh                                   ... 2.500e-11
   Tcut                                     ... 2.500e-12
   Tpresel                                  ... 2.500e-12
Coulomb Range Separation                    ... NOT USED
Exchange Range Separation                   ... NOT USED
Multipole approximations                    ... NOT USED
Finite Nucleus Model                        ... NOT USED
CABS basis                                  ... NOT available
Auxiliary Coulomb fitting basis             ... AVAILABLE
   # of basis functions in Aux-J            ...   1211
   # of shells in Aux-J                     ...    375
   Maximum angular momentum in Aux-J        ...      4
Auxiliary J/K fitting basis                 ... NOT available
Auxiliary Correlation fitting basis         ... AVAILABLE
   # of basis functions in Aux-C            ...   5002
   # of shells in Aux-C                     ...   1064
   Maximum angular momentum in Aux-C        ...      5
Auxiliary 'external' fitting basis          ... NOT available

Checking pre-screening integrals            ... done (  0.0 sec) Dimension = 743
Save PGC pre-screening integrals            ... done (  0.0 sec) Dimension = 743
Calculate PGC overlap integrals             ... done (  0.2 sec) Dimension = 525
Calculating pre-screening integrals (ORCA)  ... done (  1.9 sec) Dimension = 525
Check shell pair data                       ... done (  0.0 sec)
Shell pair information
Shell pair cut-off parameter TPreSel        ...   2.5e-12
Total number of shell pairs                 ...    276396
Shell pairs after pre-screening             ...    140328
Total number of primitive shell pairs       ...    305428
Primitive shell pairs kept                  ...    146955
          la=0 lb=0:  19469 shell pairs
          la=1 lb=0:  29840 shell pairs
          la=1 lb=1:   9930 shell pairs
          la=2 lb=0:  18528 shell pairs
          la=2 lb=1:  12313 shell pairs
          la=2 lb=2:   4008 shell pairs
          la=3 lb=0:  12471 shell pairs
          la=3 lb=1:   8695 shell pairs
          la=3 lb=2:   5422 shell pairs
          la=3 lb=3:   1869 shell pairs
          la=4 lb=0:   6771 shell pairs
          la=4 lb=1:   5003 shell pairs
          la=4 lb=2:   3130 shell pairs
          la=4 lb=3:   2216 shell pairs
          la=4 lb=4:    663 shell pairs

Calculating one electron integrals          ... done (  0.3 sec)
Calculating RI/J V-Matrix + Cholesky decomp.... done (  0.1 sec)
Calculating RI/C V-Matrix + Cholesky decomp.... done (  1.6 sec)
Calculating Nuclear repulsion               ... done (  0.0 sec) ENN=     22.148645910806 Eh

Diagonalization of the overlap matrix:
Smallest eigenvalue                        ... 2.485e-06
Time for diagonalization                   ...    0.732 sec
Threshold for overlap eigenvalues          ... 1.000e-06
Number of eigenvalues below threshold      ... 0
Time for construction of square roots      ...    0.596 sec
Total time needed                          ...    1.362 sec

-------------------
DFT GRID GENERATION
-------------------

General Integration Accuracy     IntAcc      ... 4.388
Radial Grid Type                 RadialGrid  ... OptM3 with GC (2021)
Angular Grid (max. ang.)         AngularGrid ... 4 (Lebedev-302)
Angular grid pruning method      GridPruning ... 4 (adaptive)
Weight generation scheme         WeightScheme... mBecke (2022)
Basis function cutoff            BFCut       ... 1.0000e-11
Integration weight cutoff        WCut        ... 1.0000e-14
Partially contracted basis set               ... off
Rotationally invariant grid construction     ... off
Angular grids for H and He will be reduced by one unit
Diffuse basis detected: some atoms will have their outermost
                        angular grid increased by 1.
Core-polarized basis detected: some atoms will have their core
                               angular grid increased.

Total number of grid points                  ...   168017
Total number of batches                      ...     2639
Average number of points per batch           ...       63
Average number of grid points per atom       ...     7001

---------------------
SHARK GRID GENERATION
---------------------

General Integration Accuracy     IntAcc      ... 4.388
Radial Grid Type                 RadialGrid  ... OptM3 with GC (2021)
Angular Grid (max. ang.)         AngularGrid ... 4 (Lebedev-302)
Angular grid pruning method      GridPruning ... 4 (adaptive)
Weight generation scheme         WeightScheme... mBecke (2022)
Basis function cutoff            BFCut       ... 1.0000e-11
Integration weight cutoff        WCut        ... 1.0000e-14
Partially contracted basis set               ... off
Rotationally invariant grid construction     ... off
Angular grids for H and He will be reduced by one unit
Diffuse basis detected: some atoms will have their outermost
                        angular grid increased by 1.
Core-polarized basis detected: some atoms will have their core
                               angular grid increased.
Steep s-basis detected: some atoms will have their radial
                        grid points doubled.

Total number of grid points                  ...   337324
Total number of batches                      ...     5281
Average number of points per batch           ...       63
Average number of grid points per atom       ...    14055

--------------------
COSX GRID GENERATION
--------------------

GRIDX 1
-------
General Integration Accuracy     IntAcc      ... 3.816
Radial Grid Type                 RadialGrid  ... OptM3 with GC (2021)
Angular Grid (max. ang.)         AngularGrid ... 1 (Lebedev-50)
Angular grid pruning method      GridPruning ... 4 (adaptive)
Weight generation scheme         WeightScheme... mBecke (2022)
Basis function cutoff            BFCut       ... 1.0000e-11
Integration weight cutoff        WCut        ... 1.0000e-14
Partially contracted basis set               ... on
Rotationally invariant grid construction     ... off
Angular grids for H and He will be reduced by one unit
Diffuse basis detected: some atoms will have their outermost
                        angular grid increased by 1.
Core-polarized basis detected: some atoms will have their core
                               angular grid increased.

Total number of grid points                  ...    25630
Total number of batches                      ...      210
Average number of points per batch           ...      122
Average number of grid points per atom       ...     1068
UseSFitting                                  ... on

GRIDX 2
-------
General Integration Accuracy     IntAcc      ... 4.020
Radial Grid Type                 RadialGrid  ... OptM3 with GC (2021)
Angular Grid (max. ang.)         AngularGrid ... 2 (Lebedev-110)
Angular grid pruning method      GridPruning ... 4 (adaptive)
Weight generation scheme         WeightScheme... mBecke (2022)
Basis function cutoff            BFCut       ... 1.0000e-11
Integration weight cutoff        WCut        ... 1.0000e-14
Partially contracted basis set               ... on
Rotationally invariant grid construction     ... off
Angular grids for H and He will be reduced by one unit
Diffuse basis detected: some atoms will have their outermost
                        angular grid increased by 1.
Core-polarized basis detected: some atoms will have their core
                               angular grid increased.

Total number of grid points                  ...    51282
Total number of batches                      ...      414
Average number of points per batch           ...      123
Average number of grid points per atom       ...     2137
UseSFitting                                  ... on

GRIDX 3
-------
General Integration Accuracy     IntAcc      ... 4.338
Radial Grid Type                 RadialGrid  ... OptM3 with GC (2021)
Angular Grid (max. ang.)         AngularGrid ... 3 (Lebedev-194)
Angular grid pruning method      GridPruning ... 4 (adaptive)
Weight generation scheme         WeightScheme... mBecke (2022)
Basis function cutoff            BFCut       ... 1.0000e-11
Integration weight cutoff        WCut        ... 1.0000e-14
Partially contracted basis set               ... on
Rotationally invariant grid construction     ... off
Angular grids for H and He will be reduced by one unit
Diffuse basis detected: some atoms will have their outermost
                        angular grid increased by 1.
Core-polarized basis detected: some atoms will have their core
                               angular grid increased.

Total number of grid points                  ...   113589
Total number of batches                      ...      900
Average number of points per batch           ...      126
Average number of grid points per atom       ...     4733
UseSFitting                                  ... on
Initializing property integral containers    ... done (  0.0 sec)

SHARK setup successfully completed in  25.6 seconds

Maximum memory used throughout the entire STARTUP-calculation: 358.0 MB


           ************************************************************
           *        Program running with 8 parallel MPI-processes     *
           *              working on a common directory               *
           ************************************************************
-------------------------------------------------------------------------------
                                 ORCA GUESS
                   Start orbitals & Density for SCF / CASSCF
-------------------------------------------------------------------------------

------------
SCF SETTINGS
------------
Hamiltonian:
 Ab initio Hamiltonian  Method          .... Hartree-Fock(GTOs)
 RI-approximation to the Coulomb term is turned on
   Number of AuxJ basis functions       .... 1211
   RIJ-COSX (HFX calculated with COS-X)).... on


General Settings:
 Integral files         IntName         .... orca
 Hartree-Fock type      HFTyp           .... RHF
 Total Charge           Charge          ....    0
 Multiplicity           Mult            ....    1
 Number of Electrons    NEL             ....   14
 Basis Dimension        Dim             .... 2065
 Nuclear Repulsion      ENuc            ....     22.1486459108 Eh

Convergence Acceleration:
 AO-DIIS                CNVDIIS         .... on
   Start iteration      DIISMaxIt       ....     0
   Startup error        DIISStart       ....  0.200000
   # of expansion vecs  DIISMaxEq       ....     5
   Bias factor          DIISBfac        ....   1.050
   Max. coefficient     DIISMaxC        ....  10.000
 MO-DIIS                CNVKDIIS        .... off
 Trust-Rad. Augm. Hess. CNVTRAH         .... auto
   Auto Start mean grad. ratio tolernc. ....  1.125000
   Auto Start start iteration           ....     1
   Auto Start num. interpolation iter.  ....    10
   Max. Number of Micro iterations      ....    24
   Max. Number of Macro iterations      .... Maxiter - #DIIS iter
   Number of Davidson start vectors     ....     2
   Converg. threshold    (grad. norm)   ....   1.000e-05
   Grad. Scal. Fac. for Micro threshold ....   0.100
   Minimum threshold for Micro iter.    ....   1.000e-02
   NR start threshold (gradient norm)   ....   1.000e-04
   Initial trust radius                 ....   0.400
   Minimum AH scaling param. (alpha)    ....   1.000
   Maximum AH scaling param. (alpha)    .... 1000.000
   Quad. conv. algorithm                .... NR
   White noise on init. David. guess    .... on
   Maximum white noise                  ....   0.010
   Pseudo random numbers                .... off
   Inactive MOs                         .... canonical
   Orbital update algorithm             .... Taylor
   Preconditioner                       .... Diag
   Full preconditioner red. dimension   ....   250
 SOSCF                  CNVSOSCF        .... on
   Start iteration      SOSCFMaxIt      ....   150
   Startup grad/error   SOSCFStart      ....  0.001000
   Hessian update       SOSCFHessUp     .... L-BFGS
 Level Shifting         CNVShift        .... on
   Level shift para.    LevelShift      ....    0.2500
   Turn off err/grad.   ShiftErr        ....    0.0000
 Zerner damping         CNVZerner       .... off
 Static damping         CNVDamp         .... on
   Fraction old density DampFac         ....    0.8500
   Max. Damping (<1)    DampMax         ....    0.9800
   Min. Damping (>=0)   DampMin         ....    0.0000
   Turn off err/grad.   DampErr         ....    0.0300

SCF Procedure:
 Maximum # iterations   MaxIter         ....  1000
 SCF integral mode      SCFMode         .... Direct
   Integral package                     .... SHARK and LIBINT hybrid scheme
 Reset frequency        DirectResetFreq ....    20
 Integral Threshold     Thresh          ....  2.500e-11 Eh
 Primitive CutOff       TCut            ....  2.500e-12 Eh

Convergence Tolerance:
 Convergence Check Mode ConvCheckMode   .... Total+1el-Energy
 Convergence forced     ConvForced      .... 1
 Energy Change          TolE            ....  1.000e-08 Eh
 1-El. energy change                    ....  1.000e-05 Eh
 Orbital Gradient       TolG            ....  1.000e-05
 Orbital Rotation angle TolX            ....  1.000e-05
 DIIS Error             TolErr          ....  5.000e-07

---------------------
INITIAL GUESS: MOREAD
---------------------
Guess MOs are being read from file: orca.ges
Input Geometry matches current geometry (good)
Atom 0: N(Shells)= 20 and 14 - projection required
Input basis set needs projection
NBasis(read)= 1169
NBasis(calc)= 2065
Basis set overlap was calculated
Using GuessMode=FMatrix for the initial guess
C*T matrix was formed
Effective Fockian was calculated
Effective Fockian was diagonalized
Initial density was built
                      ------------------
                      INITIAL GUESS DONE (   4.0 sec)
                      ------------------
             **** ENERGY FILE WAS UPDATED (orca.en.tmp) ****
Finished Guess after   6.5 sec
Maximum memory used throughout the entire GUESS-calculation: 448.3 MB


           ************************************************************
           *        Program running with 8 parallel MPI-processes     *
           *              working on a common directory               *
           ************************************************************

-------------------------------------------------------------------------------------------
                                      ORCA LEAN-SCF
                              memory conserving SCF solver
-------------------------------------------------------------------------------------------

----------------------------------------D-I-I-S--------------------------------------------
Iteration    Energy (Eh)           Delta-E    RMSDP     MaxDP     DIISErr   Damp  Time(sec)
-------------------------------------------------------------------------------------------
               ***  Starting incremental Fock matrix formation  ***
    1    -112.7847212529051006     0.00e+00  1.08e-04  2.68e-02  3.65e-02  0.850  61.6
    2    -112.7849028076114593    -1.82e-04  1.03e-04  2.59e-02  3.15e-02  0.850  28.9
                               ***Turning on AO-DIIS***
    3    -112.7850600090228141    -1.57e-04  9.32e-05  2.44e-02  2.71e-02  0.850  26.3
    4    -112.7851953350579919    -1.35e-04  5.42e-04  1.45e-01  2.31e-02  0.000  26.3
                              *** Initializing SOSCF ***
---------------------------------------S-O-S-C-F--------------------------------------
Iteration    Energy (Eh)           Delta-E    RMSDP     MaxDP     MaxGrad    Time(sec)
--------------------------------------------------------------------------------------
    5    -112.7859989679725601    -8.04e-04  1.41e-05  4.72e-03  3.37e-04    34.6
               *** Restarting incremental Fock matrix formation ***
    6    -112.7859987642747370     2.04e-07  2.34e-05  9.75e-03  4.86e-05    43.9
    7    -112.7859988341217701    -6.98e-08  5.12e-06  2.07e-03  1.81e-05    21.9
    8    -112.7859988406527094    -6.53e-09  2.86e-06  1.13e-03  7.58e-06    17.6
                 **** Energy Check signals convergence ****

               *****************************************************
               *                     SUCCESS                       *
               *           SCF CONVERGED AFTER   8 CYCLES          *
               *****************************************************

Recomputing exchange energy using gridx3       ... done (   77.297 sec)
Old exchange energy                            :    -13.309313388 Eh
New exchange energy                            :    -13.309274329 Eh
Exchange energy change after final integration :      0.000039059 Eh
Total energy after final integration           :   -112.785959781 Eh
             **** ENERGY FILE WAS UPDATED (orca.en.tmp) ****

----------------
TOTAL SCF ENERGY
----------------

Total Energy       :       -112.78595978131047 Eh           -3069.06199 eV

Components:
Nuclear Repulsion  :         22.14864591080557 Eh             602.69530 eV
Electronic Energy  :       -134.93464475145828 Eh           -3671.75835 eV
One Electron Energy:       -197.53341068611320 Eh           -5375.15737 eV
Two Electron Energy:         62.59876593465492 Eh            1703.39902 eV

Virial components:
Potential Energy   :       -225.32318202122451 Eh           -6131.35549 eV
Kinetic Energy     :        112.53722223991404 Eh            3062.29350 eV
Virial Ratio       :          2.00221026906872

---------------
SCF CONVERGENCE
---------------

  Last Energy change         ...    6.5309e-09  Tolerance :   1.0000e-08
  Last MAX-Density change    ...    1.1295e-03  Tolerance :   1.0000e-07
  Last RMS-Density change    ...    2.8587e-06  Tolerance :   5.0000e-09
  Last DIIS Error            ...    3.3668e-04  Tolerance :   5.0000e-07
  Last Orbital Gradient      ...    7.5780e-06  Tolerance :   1.0000e-05
  Last Orbital Rotation      ...    6.6056e-06  Tolerance :   1.0000e-05


----------------
ORBITAL ENERGIES
----------------

  NO   OCC          E(Eh)            E(eV)
   0   2.0000     -20.665825      -562.3457
   1   2.0000     -11.368732      -309.3589
   2   2.0000      -1.508917       -41.0597
   3   2.0000      -0.802932       -21.8489
   4   2.0000      -0.632291       -17.2055
   5   2.0000      -0.632291       -17.2055
   6   2.0000      -0.556951       -15.1554
   7   0.0000       0.017154         0.4668
   8   0.0000       0.024075         0.6551
   9   0.0000       0.024075         0.6551
  10   0.0000       0.034935         0.9506
  11   0.0000       0.038325         1.0429
  12   0.0000       0.047433         1.2907
  13   0.0000       0.049715         1.3528
  14   0.0000       0.050703         1.3797
  15   0.0000       0.050703         1.3797
  16   0.0000       0.059632         1.6227
  17   0.0000       0.059633         1.6227
*Only the first 10 virtual orbitals were printed.

                    ********************************
                    * MULLIKEN POPULATION ANALYSIS *
                    ********************************

-----------------------
MULLIKEN ATOMIC CHARGES
-----------------------
   0 C :    0.724355
   1 O :   -0.703661
   2 Mg:   -0.061355
   3 O :    0.013968
   4 O :    0.014586
   5 O :    0.013028
   6 O :    0.013142
   7 O :   -0.000407
   8 Mg:   -0.003296
   9 Mg:   -0.003403
  10 Mg:   -0.003923
  11 Mg:   -0.003888
  12 O :   -0.000036
  13 O :   -0.000017
  14 O :   -0.000055
  15 O :   -0.000019
  16 O :    0.000141
  17 O :    0.000137
  18 O :    0.000115
  19 O :    0.000115
  20 O :    0.000113
  21 O :    0.000113
  22 O :    0.000128
  23 O :    0.000118
Sum of atomic charges:    0.0000000

--------------------------------
MULLIKEN REDUCED ORBITAL CHARGES
--------------------------------
  0 C s       :     3.588649  s :     3.588649
      pz      :     0.939780  p :     1.637357
      px      :     0.348654
      py      :     0.348923
      dz2     :     0.001557  d :     0.035157
      dxz     :     0.016875
      dyz     :     0.016725
      dx2y2   :     0.000000
      dxy     :    -0.000000
      f0      :     0.002269  f :     0.014975
      f+1     :     0.006340
      f-1     :     0.006366
      f+2     :    -0.000000
      f-2     :    -0.000000
      f+3     :    -0.000000
      f-3     :    -0.000000
      g0      :    -0.000217  g :    -0.000494
      g+1     :    -0.000135
      g-1     :    -0.000142
      g+2     :    -0.000000
      g-2     :    -0.000000
      g+3     :     0.000000
      g-3     :     0.000000
      g+4     :     0.000000
      g-4     :    -0.000000

  1 O s       :     3.986001  s :     3.986001
      pz      :     1.466902  p :     4.624961
      px      :     1.579007
      py      :     1.579053
      dz2     :     0.019394  d :     0.082047
      dxz     :     0.031324
      dyz     :     0.031330
      dx2y2   :    -0.000000
      dxy     :    -0.000000
      f0      :     0.000461  f :     0.009456
      f+1     :     0.004497
      f-1     :     0.004499
      f+2     :     0.000000
      f-2     :    -0.000000
      f+3     :     0.000000
      f-3     :     0.000000
      g0      :     0.000175  g :     0.001196
      g+1     :     0.000510
      g-1     :     0.000510
      g+2     :    -0.000000
      g-2     :    -0.000000
      g+3     :    -0.000000
      g-3     :     0.000000
      g+4     :     0.000000
      g-4     :    -0.000000

  2 Mgs       :     0.031159  s :     0.031159
      pz      :    -0.006359  p :     0.043883
      px      :     0.025068
      py      :     0.025174
      dz2     :    -0.004223  d :    -0.008118
      dxz     :    -0.001882
      dyz     :    -0.002013
      dx2y2   :     0.000000
      dxy     :     0.000000
      f0      :    -0.001434  f :    -0.004931
      f+1     :    -0.001726
      f-1     :    -0.001771
      f+2     :    -0.000000
      f-2     :    -0.000000
      f+3     :     0.000000
      f-3     :     0.000000
      g0      :    -0.000456  g :    -0.000638
      g+1     :    -0.000091
      g-1     :    -0.000090
      g+2     :    -0.000000
      g-2     :    -0.000000
      g+3     :    -0.000000
      g-3     :    -0.000000
      g+4     :    -0.000000
      g-4     :    -0.000000

  3 O s       :    -0.010419  s :    -0.010419
      pz      :     0.000983  p :    -0.003611
      px      :    -0.003417
      py      :    -0.001177
      dz2     :    -0.000066  d :     0.000008
      dxz     :     0.000205
      dyz     :    -0.000079
      dx2y2   :     0.000017
      dxy     :    -0.000069
      f0      :    -0.000009  f :     0.000052
      f+1     :     0.000027
      f-1     :     0.000004
      f+2     :     0.000017
      f-2     :    -0.000000
      f+3     :     0.000011
      f-3     :     0.000001
      g0      :     0.000000  g :     0.000001
      g+1     :     0.000000
      g-1     :     0.000000
      g+2     :     0.000001
      g-2     :     0.000000
      g+3     :     0.000000
      g-3     :     0.000000
      g+4     :     0.000000
      g-4     :    -0.000000

  4 O s       :    -0.010921  s :    -0.010921
      pz      :     0.001014  p :    -0.003818
      px      :    -0.001041
      py      :    -0.003790
      dz2     :    -0.000042  d :     0.000098
      dxz     :    -0.000076
      dyz     :     0.000237
      dx2y2   :     0.000059
      dxy     :    -0.000081
      f0      :    -0.000008  f :     0.000054
      f+1     :     0.000004
      f-1     :     0.000029
      f+2     :     0.000018
      f-2     :    -0.000000
      f+3     :     0.000001
      f-3     :     0.000011
      g0      :     0.000000  g :     0.000001
      g+1     :     0.000000
      g-1     :     0.000000
      g+2     :     0.000001
      g-2     :     0.000000
      g+3     :     0.000000
      g-3     :     0.000000
      g+4     :     0.000000
      g-4     :    -0.000000

  5 O s       :    -0.010140  s :    -0.010140
      pz      :     0.001031  p :    -0.003013
      px      :    -0.003221
      py      :    -0.000822
      dz2     :    -0.000057  d :     0.000068
      dxz     :     0.000236
      dyz     :    -0.000080
      dx2y2   :     0.000039
      dxy     :    -0.000071
      f0      :    -0.000008  f :     0.000056
      f+1     :     0.000030
      f-1     :     0.000004
      f+2     :     0.000020
      f-2     :     0.000000
      f+3     :     0.000010
      f-3     :     0.000001
      g0      :     0.000000  g :     0.000001
      g+1     :     0.000000
      g-1     :     0.000000
      g+2     :     0.000001
      g-2     :     0.000000
      g+3     :     0.000000
      g-3     :    -0.000000
      g+4     :     0.000000
      g-4     :    -0.000000

  6 O s       :    -0.009963  s :    -0.009963
      pz      :     0.001031  p :    -0.003286
      px      :    -0.001124
      py      :    -0.003194
      dz2     :    -0.000048  d :     0.000049
      dxz     :    -0.000081
      dyz     :     0.000227
      dx2y2   :     0.000026
      dxy     :    -0.000075
      f0      :    -0.000008  f :     0.000056
      f+1     :     0.000004
      f-1     :     0.000031
      f+2     :     0.000018
      f-2     :     0.000000
      f+3     :     0.000001
      f-3     :     0.000010
      g0      :     0.000000  g :     0.000001
      g+1     :     0.000000
      g-1     :     0.000000
      g+2     :     0.000001
      g-2     :     0.000000
      g+3     :     0.000000
      g-3     :     0.000000
      g+4     :     0.000000
      g-4     :    -0.000000

  7 O s       :    -0.000324  s :    -0.000324
      pz      :     0.000753  p :     0.000611
      px      :    -0.000070
      py      :    -0.000071
      dz2     :     0.000112  d :     0.000116
      dxz     :     0.000002
      dyz     :     0.000001
      dx2y2   :     0.000000
      dxy     :     0.000000
      f0      :     0.000004  f :     0.000004
      f+1     :    -0.000000
      f-1     :    -0.000000
      f+2     :    -0.000000
      f-2     :     0.000000
      f+3     :    -0.000000
      f-3     :    -0.000000
      g0      :     0.000000  g :     0.000000
      g+1     :    -0.000000
      g-1     :    -0.000000
      g+2     :    -0.000000
      g-2     :    -0.000000
      g+3     :    -0.000000
      g-3     :    -0.000000
      g+4     :    -0.000000
      g-4     :    -0.000000

  8 Mgs       :     0.000065  s :     0.000065
      pz      :     0.002074  p :     0.002887
      px      :     0.000348
      py      :     0.000465
      dz2     :    -0.000184  d :     0.000320
      dxz     :     0.000210
      dyz     :     0.000164
      dx2y2   :     0.000127
      dxy     :     0.000002
      f0      :     0.000004  f :     0.000031
      f+1     :    -0.000002
      f-1     :     0.000005
      f+2     :    -0.000015
      f-2     :    -0.000018
      f+3     :     0.000027
      f-3     :     0.000029
      g0      :     0.000000  g :    -0.000006
      g+1     :    -0.000001
      g-1     :    -0.000001
      g+2     :     0.000001
      g-2     :    -0.000002
      g+3     :    -0.000002
      g-3     :    -0.000001
      g+4     :    -0.000001
      g-4     :     0.000001

  9 Mgs       :     0.000022  s :     0.000022
      pz      :     0.001885  p :     0.002986
      px      :     0.000598
      py      :     0.000503
      dz2     :    -0.000144  d :     0.000372
      dxz     :     0.000158
      dyz     :     0.000156
      dx2y2   :     0.000143
      dxy     :     0.000059
      f0      :     0.000011  f :     0.000030
      f+1     :     0.000000
      f-1     :     0.000009
      f+2     :    -0.000016
      f-2     :    -0.000015
      f+3     :     0.000015
      f-3     :     0.000025
      g0      :    -0.000000  g :    -0.000006
      g+1     :    -0.000001
      g-1     :    -0.000001
      g+2     :     0.000001
      g-2     :    -0.000002
      g+3     :    -0.000001
      g-3     :    -0.000002
      g+4     :    -0.000001
      g-4     :     0.000001

 10 Mgs       :     0.000124  s :     0.000124
      pz      :     0.002047  p :     0.003390
      px      :     0.000650
      py      :     0.000694
      dz2     :    -0.000167  d :     0.000398
      dxz     :     0.000178
      dyz     :     0.000178
      dx2y2   :     0.000145
      dxy     :     0.000064
      f0      :     0.000003  f :     0.000016
      f+1     :    -0.000004
      f-1     :     0.000000
      f+2     :    -0.000015
      f-2     :    -0.000011
      f+3     :     0.000021
      f-3     :     0.000021
      g0      :     0.000000  g :    -0.000006
      g+1     :    -0.000001
      g-1     :    -0.000001
      g+2     :     0.000000
      g-2     :    -0.000002
      g+3     :    -0.000001
      g-3     :    -0.000002
      g+4     :    -0.000001
      g-4     :     0.000001

 11 Mgs       :     0.000448  s :     0.000448
      pz      :     0.001861  p :     0.003087
      px      :     0.000627
      py      :     0.000599
      dz2     :    -0.000136  d :     0.000324
      dxz     :     0.000138
      dyz     :     0.000163
      dx2y2   :     0.000121
      dxy     :     0.000039
      f0      :     0.000009  f :     0.000035
      f+1     :     0.000008
      f-1     :     0.000002
      f+2     :    -0.000015
      f-2     :    -0.000017
      f+3     :     0.000027
      f-3     :     0.000021
      g0      :    -0.000000  g :    -0.000006
      g+1     :    -0.000001
      g-1     :    -0.000001
      g+2     :     0.000001
      g-2     :    -0.000002
      g+3     :    -0.000001
      g-3     :    -0.000001
      g+4     :    -0.000001
      g-4     :     0.000001

 12 O s       :     0.000010  s :     0.000010
      pz      :     0.000081  p :     0.000025
      px      :    -0.000027
      py      :    -0.000029
      dz2     :     0.000002  d :     0.000001
      dxz     :    -0.000000
      dyz     :    -0.000001
      dx2y2   :    -0.000000
      dxy     :    -0.000000
      f0      :     0.000000  f :    -0.000000
      f+1     :     0.000000
      f-1     :    -0.000000
      f+2     :    -0.000000
      f-2     :    -0.000000
      f+3     :    -0.000000
      f-3     :    -0.000000
      g0      :    -0.000000  g :    -0.000000
      g+1     :    -0.000000
      g-1     :    -0.000000
      g+2     :    -0.000000
      g-2     :    -0.000000
      g+3     :    -0.000000
      g-3     :    -0.000000
      g+4     :    -0.000000
      g-4     :     0.000000

 13 O s       :     0.000003  s :     0.000003
      pz      :     0.000070  p :     0.000015
      px      :    -0.000027
      py      :    -0.000029
      dz2     :     0.000002  d :    -0.000000
      dxz     :    -0.000001
      dyz     :    -0.000001
      dx2y2   :    -0.000000
      dxy     :    -0.000000
      f0      :     0.000000  f :    -0.000000
      f+1     :    -0.000000
      f-1     :    -0.000000
      f+2     :    -0.000000
      f-2     :    -0.000000
      f+3     :    -0.000000
      f-3     :    -0.000000
      g0      :    -0.000000  g :    -0.000000
      g+1     :    -0.000000
      g-1     :    -0.000000
      g+2     :    -0.000000
      g-2     :    -0.000000
      g+3     :    -0.000000
      g-3     :    -0.000000
      g+4     :    -0.000000
      g-4     :     0.000000

 14 O s       :     0.000016  s :     0.000016
      pz      :     0.000089  p :     0.000039
      px      :    -0.000025
      py      :    -0.000026
      dz2     :     0.000002  d :     0.000001
      dxz     :    -0.000000
      dyz     :    -0.000001
      dx2y2   :    -0.000000
      dxy     :    -0.000000
      f0      :     0.000000  f :    -0.000000
      f+1     :     0.000000
      f-1     :     0.000000
      f+2     :    -0.000000
      f-2     :    -0.000000
      f+3     :    -0.000000
      f-3     :    -0.000000
      g0      :    -0.000000  g :    -0.000000
      g+1     :    -0.000000
      g-1     :    -0.000000
      g+2     :    -0.000000
      g-2     :    -0.000000
      g+3     :    -0.000000
      g-3     :    -0.000000
      g+4     :    -0.000000
      g-4     :     0.000000

 15 O s       :     0.000004  s :     0.000004
      pz      :     0.000068  p :     0.000015
      px      :    -0.000028
      py      :    -0.000025
      dz2     :     0.000001  d :    -0.000000
      dxz     :    -0.000001
      dyz     :    -0.000000
      dx2y2   :    -0.000000
      dxy     :    -0.000000
      f0      :     0.000000  f :    -0.000000
      f+1     :    -0.000000
      f-1     :     0.000000
      f+2     :    -0.000000
      f-2     :    -0.000000
      f+3     :    -0.000000
      f-3     :    -0.000000
      g0      :    -0.000000  g :    -0.000000
      g+1     :    -0.000000
      g-1     :    -0.000000
      g+2     :    -0.000000
      g-2     :    -0.000000
      g+3     :    -0.000000
      g-3     :    -0.000000
      g+4     :    -0.000000
      g-4     :     0.000000

 16 O s       :    -0.000033  s :    -0.000033
      pz      :    -0.000026  p :    -0.000108
      px      :    -0.000046
      py      :    -0.000036
      dz2     :     0.000000  d :    -0.000000
      dxz     :    -0.000000
      dyz     :    -0.000000
      dx2y2   :     0.000000
      dxy     :    -0.000000
      f0      :    -0.000000  f :     0.000000
      f+1     :     0.000000
      f-1     :     0.000000
      f+2     :    -0.000000
      f-2     :     0.000000
      f+3     :     0.000000
      f-3     :    -0.000000
      g0      :    -0.000000  g :    -0.000000
      g+1     :    -0.000000
      g-1     :    -0.000000
      g+2     :    -0.000000
      g-2     :    -0.000000
      g+3     :     0.000000
      g-3     :     0.000000
      g+4     :     0.000000
      g-4     :     0.000000

 17 O s       :    -0.000030  s :    -0.000030
      pz      :    -0.000026  p :    -0.000107
      px      :    -0.000038
      py      :    -0.000042
      dz2     :     0.000000  d :    -0.000001
      dxz     :    -0.000000
      dyz     :    -0.000001
      dx2y2   :     0.000000
      dxy     :    -0.000001
      f0      :    -0.000000  f :     0.000000
      f+1     :     0.000000
      f-1     :     0.000000
      f+2     :    -0.000000
      f-2     :     0.000000
      f+3     :    -0.000000
      f-3     :     0.000000
      g0      :    -0.000000  g :    -0.000000
      g+1     :    -0.000000
      g-1     :    -0.000000
      g+2     :    -0.000000
      g-2     :    -0.000000
      g+3     :     0.000000
      g-3     :     0.000000
      g+4     :     0.000000
      g-4     :     0.000000

 18 O s       :    -0.000022  s :    -0.000022
      pz      :    -0.000027  p :    -0.000094
      px      :    -0.000038
      py      :    -0.000029
      dz2     :     0.000001  d :     0.000000
      dxz     :    -0.000000
      dyz     :    -0.000001
      dx2y2   :     0.000001
      dxy     :    -0.000000
      f0      :    -0.000000  f :     0.000000
      f+1     :     0.000000
      f-1     :     0.000000
      f+2     :    -0.000000
      f-2     :     0.000000
      f+3     :    -0.000000
      f-3     :     0.000000
      g0      :    -0.000000  g :    -0.000000
      g+1     :    -0.000000
      g-1     :    -0.000000
      g+2     :    -0.000000
      g-2     :    -0.000000
      g+3     :     0.000000
      g-3     :     0.000000
      g+4     :     0.000000
      g-4     :     0.000000

 19 O s       :    -0.000020  s :    -0.000020
      pz      :    -0.000027  p :    -0.000095
      px      :    -0.000032
      py      :    -0.000035
      dz2     :     0.000000  d :    -0.000000
      dxz     :    -0.000001
      dyz     :    -0.000000
      dx2y2   :     0.000000
      dxy     :    -0.000000
      f0      :    -0.000000  f :     0.000000
      f+1     :     0.000000
      f-1     :     0.000000
      f+2     :    -0.000000
      f-2     :     0.000000
      f+3     :     0.000000
      f-3     :    -0.000000
      g0      :    -0.000000  g :    -0.000000
      g+1     :    -0.000000
      g-1     :    -0.000000
      g+2     :    -0.000000
      g-2     :    -0.000000
      g+3     :     0.000000
      g-3     :     0.000000
      g+4     :     0.000000
      g-4     :     0.000000

 20 O s       :    -0.000019  s :    -0.000019
      pz      :    -0.000027  p :    -0.000094
      px      :    -0.000031
      py      :    -0.000036
      dz2     :     0.000001  d :     0.000000
      dxz     :    -0.000000
      dyz     :    -0.000000
      dx2y2   :     0.000001
      dxy     :    -0.000000
      f0      :    -0.000000  f :     0.000000
      f+1     :     0.000000
      f-1     :     0.000000
      f+2     :    -0.000000
      f-2     :     0.000000
      f+3     :     0.000000
      f-3     :    -0.000000
      g0      :    -0.000000  g :    -0.000000
      g+1     :    -0.000000
      g-1     :    -0.000000
      g+2     :    -0.000000
      g-2     :    -0.000000
      g+3     :     0.000000
      g-3     :     0.000000
      g+4     :     0.000000
      g-4     :     0.000000

 21 O s       :    -0.000020  s :    -0.000020
      pz      :    -0.000027  p :    -0.000093
      px      :    -0.000035
      py      :    -0.000031
      dz2     :     0.000000  d :     0.000000
      dxz     :    -0.000000
      dyz     :    -0.000001
      dx2y2   :     0.000001
      dxy     :    -0.000000
      f0      :    -0.000000  f :     0.000000
      f+1     :     0.000000
      f-1     :     0.000000
      f+2     :    -0.000000
      f-2     :     0.000000
      f+3     :    -0.000000
      f-3     :     0.000000
      g0      :    -0.000000  g :    -0.000000
      g+1     :    -0.000000
      g-1     :    -0.000000
      g+2     :    -0.000000
      g-2     :    -0.000000
      g+3     :     0.000000
      g-3     :     0.000000
      g+4     :     0.000000
      g-4     :     0.000000

 22 O s       :    -0.000024  s :    -0.000024
      pz      :    -0.000028  p :    -0.000103
      px      :    -0.000037
      py      :    -0.000038
      dz2     :     0.000000  d :    -0.000001
      dxz     :    -0.000000
      dyz     :    -0.000001
      dx2y2   :     0.000000
      dxy     :    -0.000000
      f0      :    -0.000000  f :    -0.000000
      f+1     :     0.000000
      f-1     :     0.000000
      f+2     :    -0.000000
      f-2     :     0.000000
      f+3     :    -0.000000
      f-3     :     0.000000
      g0      :    -0.000000  g :    -0.000000
      g+1     :    -0.000000
      g-1     :    -0.000000
      g+2     :    -0.000000
      g-2     :    -0.000000
      g+3     :     0.000000
      g-3     :     0.000000
      g+4     :     0.000000
      g-4     :     0.000000

 23 O s       :    -0.000021  s :    -0.000021
      pz      :    -0.000028  p :    -0.000097
      px      :    -0.000032
      py      :    -0.000037
      dz2     :     0.000000  d :    -0.000001
      dxz     :    -0.000001
      dyz     :    -0.000000
      dx2y2   :     0.000000
      dxy     :    -0.000000
      f0      :    -0.000000  f :     0.000000
      f+1     :     0.000000
      f-1     :     0.000000
      f+2     :    -0.000000
      f-2     :     0.000000
      f+3     :     0.000000
      f-3     :    -0.000000
      g0      :    -0.000000  g :    -0.000000
      g+1     :    -0.000000
      g-1     :    -0.000000
      g+2     :    -0.000000
      g-2     :    -0.000000
      g+3     :     0.000000
      g-3     :     0.000000
      g+4     :     0.000000
      g-4     :     0.000000



                     *******************************
                     * LOEWDIN POPULATION ANALYSIS *
                     *******************************

----------------------
LOEWDIN ATOMIC CHARGES
----------------------
   0 C :    0.113036
   1 O :    0.448862
   2 Mg:   -0.370862
   3 O :   -0.026737
   4 O :   -0.026737
   5 O :   -0.026739
   6 O :   -0.026739
   7 O :   -0.000886
   8 Mg:   -0.020549
   9 Mg:   -0.020549
  10 Mg:   -0.020550
  11 Mg:   -0.020550
  12 O :   -0.000100
  13 O :   -0.000100
  14 O :   -0.000100
  15 O :   -0.000100
  16 O :   -0.000075
  17 O :   -0.000075
  18 O :   -0.000075
  19 O :   -0.000075
  20 O :   -0.000075
  21 O :   -0.000075
  22 O :   -0.000075
  23 O :   -0.000075

-------------------------------
LOEWDIN REDUCED ORBITAL CHARGES
-------------------------------
  0 C s       :     2.916160  s :     2.916160
      pz      :     1.105745  p :     1.976343
      px      :     0.435299
      py      :     0.435299
      dz2     :     0.248327  d :     0.564185
      dxz     :     0.157930
      dyz     :     0.157928
      dx2y2   :     0.000000
      dxy     :     0.000000
      f0      :     0.112277  f :     0.294084
      f+1     :     0.090903
      f-1     :     0.090903
      f+2     :     0.000000
      f-2     :     0.000000
      f+3     :     0.000000
      f-3     :     0.000000
      g0      :     0.039817  g :     0.136193
      g+1     :     0.048188
      g-1     :     0.048188
      g+2     :     0.000000
      g-2     :     0.000000
      g+3     :     0.000000
      g-3     :     0.000000
      g+4     :     0.000000
      g-4     :     0.000000

  1 O s       :     3.254202  s :     3.254202
      pz      :     1.585500  p :     3.973380
      px      :     1.193939
      py      :     1.193941
      dz2     :     0.140170  d :     0.211619
      dxz     :     0.035725
      dyz     :     0.035725
      dx2y2   :     0.000000
      dxy     :     0.000000
      f0      :     0.046401  f :     0.084021
      f+1     :     0.018810
      f-1     :     0.018810
      f+2     :     0.000000
      f-2     :     0.000000
      f+3     :     0.000000
      f-3     :     0.000000
      g0      :     0.020195  g :     0.027917
      g+1     :     0.003861
      g-1     :     0.003861
      g+2     :     0.000000
      g-2     :     0.000000
      g+3     :     0.000000
      g-3     :     0.000000
      g+4     :     0.000000
      g-4     :     0.000000

  2 Mgs       :     0.029384  s :     0.029384
      pz      :     0.110265  p :     0.113659
      px      :     0.001697
      py      :     0.001697
      dz2     :     0.125096  d :     0.132432
      dxz     :     0.003669
      dyz     :     0.003668
      dx2y2   :     0.000000
      dxy     :     0.000000
      f0      :     0.069358  f :     0.075301
      f+1     :     0.002972
      f-1     :     0.002971
      f+2     :     0.000000
      f-2     :     0.000000
      f+3     :     0.000000
      f-3     :     0.000000
      g0      :     0.017705  g :     0.020086
      g+1     :     0.001189
      g-1     :     0.001189
      g+2     :     0.000000
      g-2     :     0.000000
      g+3     :     0.000000
      g-3     :     0.000000
      g+4     :     0.000002
      g-4     :     0.000000

  3 O s       :     0.001681  s :     0.001681
      pz      :     0.008906  p :     0.017954
      px      :     0.008887
      py      :     0.000161
      dz2     :     0.000508  d :     0.006456
      dxz     :     0.005334
      dyz     :     0.000008
      dx2y2   :     0.000600
      dxy     :     0.000005
      f0      :     0.000046  f :     0.000619
      f+1     :     0.000319
      f-1     :     0.000000
      f+2     :     0.000248
      f-2     :     0.000000
      f+3     :     0.000007
      f-3     :     0.000000
      g0      :     0.000011  g :     0.000027
      g+1     :     0.000001
      g-1     :     0.000000
      g+2     :     0.000012
      g-2     :     0.000000
      g+3     :     0.000002
      g-3     :     0.000000
      g+4     :     0.000000
      g-4     :     0.000000

  4 O s       :     0.001681  s :     0.001681
      pz      :     0.008907  p :     0.017953
      px      :     0.000161
      py      :     0.008886
      dz2     :     0.000508  d :     0.006457
      dxz     :     0.000008
      dyz     :     0.005334
      dx2y2   :     0.000601
      dxy     :     0.000005
      f0      :     0.000046  f :     0.000619
      f+1     :     0.000000
      f-1     :     0.000319
      f+2     :     0.000248
      f-2     :     0.000000
      f+3     :     0.000000
      f-3     :     0.000007
      g0      :     0.000011  g :     0.000027
      g+1     :     0.000000
      g-1     :     0.000001
      g+2     :     0.000012
      g-2     :     0.000000
      g+3     :     0.000000
      g-3     :     0.000002
      g+4     :     0.000000
      g-4     :     0.000000

  5 O s       :     0.001681  s :     0.001681
      pz      :     0.008906  p :     0.017954
      px      :     0.008887
      py      :     0.000161
      dz2     :     0.000508  d :     0.006457
      dxz     :     0.005335
      dyz     :     0.000008
      dx2y2   :     0.000601
      dxy     :     0.000005
      f0      :     0.000046  f :     0.000619
      f+1     :     0.000319
      f-1     :     0.000000
      f+2     :     0.000248
      f-2     :     0.000000
      f+3     :     0.000007
      f-3     :     0.000000
      g0      :     0.000011  g :     0.000027
      g+1     :     0.000001
      g-1     :     0.000000
      g+2     :     0.000012
      g-2     :     0.000000
      g+3     :     0.000002
      g-3     :     0.000000
      g+4     :     0.000000
      g-4     :     0.000000

  6 O s       :     0.001681  s :     0.001681
      pz      :     0.008907  p :     0.017954
      px      :     0.000161
      py      :     0.008887
      dz2     :     0.000508  d :     0.006457
      dxz     :     0.000008
      dyz     :     0.005335
      dx2y2   :     0.000601
      dxy     :     0.000005
      f0      :     0.000046  f :     0.000619
      f+1     :     0.000000
      f-1     :     0.000319
      f+2     :     0.000248
      f-2     :     0.000000
      f+3     :     0.000000
      f-3     :     0.000007
      g0      :     0.000011  g :     0.000027
      g+1     :     0.000000
      g-1     :     0.000001
      g+2     :     0.000012
      g-2     :     0.000000
      g+3     :     0.000000
      g-3     :     0.000002
      g+4     :     0.000000
      g-4     :     0.000000

  7 O s       :     0.000057  s :     0.000057
      pz      :     0.000766  p :     0.000777
      px      :     0.000005
      py      :     0.000005
      dz2     :     0.000026  d :     0.000030
      dxz     :     0.000002
      dyz     :     0.000002
      dx2y2   :     0.000000
      dxy     :     0.000000
      f0      :     0.000015  f :     0.000016
      f+1     :     0.000001
      f-1     :     0.000001
      f+2     :     0.000000
      f-2     :     0.000000
      f+3     :     0.000000
      f-3     :     0.000000
      g0      :     0.000006  g :     0.000006
      g+1     :     0.000000
      g-1     :     0.000000
      g+2     :     0.000000
      g-2     :     0.000000
      g+3     :     0.000000
      g-3     :     0.000000
      g+4     :     0.000000
      g-4     :     0.000000

  8 Mgs       :     0.002333  s :     0.002333
      pz      :     0.004249  p :     0.014276
      px      :     0.005013
      py      :     0.005014
      dz2     :     0.000051  d :     0.003174
      dxz     :     0.001129
      dyz     :     0.001129
      dx2y2   :     0.000006
      dxy     :     0.000858
      f0      :     0.000205  f :     0.000694
      f+1     :     0.000034
      f-1     :     0.000034
      f+2     :     0.000000
      f-2     :     0.000342
      f+3     :     0.000039
      f-3     :     0.000039
      g0      :     0.000010  g :     0.000073
      g+1     :     0.000013
      g-1     :     0.000013
      g+2     :     0.000000
      g-2     :     0.000012
      g+3     :     0.000011
      g-3     :     0.000011
      g+4     :     0.000003
      g-4     :     0.000000

  9 Mgs       :     0.002333  s :     0.002333
      pz      :     0.004248  p :     0.014276
      px      :     0.005014
      py      :     0.005014
      dz2     :     0.000051  d :     0.003173
      dxz     :     0.001129
      dyz     :     0.001129
      dx2y2   :     0.000006
      dxy     :     0.000859
      f0      :     0.000205  f :     0.000694
      f+1     :     0.000034
      f-1     :     0.000034
      f+2     :     0.000000
      f-2     :     0.000342
      f+3     :     0.000039
      f-3     :     0.000039
      g0      :     0.000010  g :     0.000074
      g+1     :     0.000013
      g-1     :     0.000013
      g+2     :     0.000000
      g-2     :     0.000012
      g+3     :     0.000011
      g-3     :     0.000011
      g+4     :     0.000003
      g-4     :     0.000000

 10 Mgs       :     0.002333  s :     0.002333
      pz      :     0.004249  p :     0.014276
      px      :     0.005013
      py      :     0.005014
      dz2     :     0.000051  d :     0.003174
      dxz     :     0.001129
      dyz     :     0.001129
      dx2y2   :     0.000006
      dxy     :     0.000858
      f0      :     0.000205  f :     0.000694
      f+1     :     0.000034
      f-1     :     0.000034
      f+2     :     0.000000
      f-2     :     0.000342
[...]
      f-2     :     0.000000
      f+3     :     0.000000
      f-3     :     0.000000
      g0      :     0.000000  g :     0.000000
      g+1     :     0.000000
      g-1     :     0.000000
      g+2     :     0.000000
      g-2     :     0.000000
      g+3     :     0.000000
      g-3     :     0.000000
      g+4     :     0.000000
      g-4     :     0.000000

 19 O s       :     0.000020  s :     0.000020
      pz      :     0.000020  p :     0.000042
      px      :     0.000017
      py      :     0.000005
      dz2     :     0.000000  d :     0.000012
      dxz     :     0.000005
      dyz     :     0.000003
      dx2y2   :     0.000002
      dxy     :     0.000002
      f0      :     0.000000  f :     0.000001
      f+1     :     0.000000
      f-1     :     0.000000
      f+2     :     0.000000
      f-2     :     0.000000
      f+3     :     0.000000
      f-3     :     0.000000
      g0      :     0.000000  g :     0.000000
      g+1     :     0.000000
      g-1     :     0.000000
      g+2     :     0.000000
      g-2     :     0.000000
      g+3     :     0.000000
      g-3     :     0.000000
      g+4     :     0.000000
      g-4     :     0.000000

 20 O s       :     0.000020  s :     0.000020
      pz      :     0.000020  p :     0.000042
      px      :     0.000017
      py      :     0.000005
      dz2     :     0.000000  d :     0.000012
      dxz     :     0.000005
      dyz     :     0.000003
      dx2y2   :     0.000002
      dxy     :     0.000002
      f0      :     0.000000  f :     0.000001
      f+1     :     0.000000
      f-1     :     0.000000
      f+2     :     0.000000
      f-2     :     0.000000
      f+3     :     0.000000
      f-3     :     0.000000
      g0      :     0.000000  g :     0.000000
      g+1     :     0.000000
      g-1     :     0.000000
      g+2     :     0.000000
      g-2     :     0.000000
      g+3     :     0.000000
      g-3     :     0.000000
      g+4     :     0.000000
      g-4     :     0.000000

 21 O s       :     0.000020  s :     0.000020
      pz      :     0.000020  p :     0.000042
      px      :     0.000005
      py      :     0.000017
      dz2     :     0.000000  d :     0.000012
      dxz     :     0.000003
      dyz     :     0.000005
      dx2y2   :     0.000002
      dxy     :     0.000002
      f0      :     0.000000  f :     0.000001
      f+1     :     0.000000
      f-1     :     0.000000
      f+2     :     0.000000
      f-2     :     0.000000
      f+3     :     0.000000
      f-3     :     0.000000
      g0      :     0.000000  g :     0.000000
      g+1     :     0.000000
      g-1     :     0.000000
      g+2     :     0.000000
      g-2     :     0.000000
      g+3     :     0.000000
      g-3     :     0.000000
      g+4     :     0.000000
      g-4     :     0.000000

 22 O s       :     0.000020  s :     0.000020
      pz      :     0.000020  p :     0.000042
      px      :     0.000005
      py      :     0.000017
      dz2     :     0.000000  d :     0.000012
      dxz     :     0.000003
      dyz     :     0.000005
      dx2y2   :     0.000002
      dxy     :     0.000002
      f0      :     0.000000  f :     0.000001
      f+1     :     0.000000
      f-1     :     0.000000
      f+2     :     0.000000
      f-2     :     0.000000
      f+3     :     0.000000
      f-3     :     0.000000
      g0      :     0.000000  g :     0.000000
      g+1     :     0.000000
      g-1     :     0.000000
      g+2     :     0.000000
      g-2     :     0.000000
      g+3     :     0.000000
      g-3     :     0.000000
      g+4     :     0.000000
      g-4     :     0.000000

 23 O s       :     0.000020  s :     0.000020
      pz      :     0.000020  p :     0.000042
      px      :     0.000018
      py      :     0.000005
      dz2     :     0.000000  d :     0.000012
      dxz     :     0.000005
      dyz     :     0.000003
      dx2y2   :     0.000002
      dxy     :     0.000002
      f0      :     0.000000  f :     0.000001
      f+1     :     0.000000
      f-1     :     0.000000
      f+2     :     0.000000
      f-2     :     0.000000
      f+3     :     0.000000
      f-3     :     0.000000
      g0      :     0.000000  g :     0.000000
      g+1     :     0.000000
      g-1     :     0.000000
      g+2     :     0.000000
      g-2     :     0.000000
      g+3     :     0.000000
      g-3     :     0.000000
      g+4     :     0.000000
      g-4     :     0.000000



                      *****************************
                      * MAYER POPULATION ANALYSIS *
                      *****************************

  NA   - Mulliken gross atomic population
  ZA   - Total nuclear charge
  QA   - Mulliken gross atomic charge
  VA   - Mayer's total valence
  BVA  - Mayer's bonded valence
  FA   - Mayer's free valence

  ATOM       NA         ZA         QA         VA         BVA        FA
  0 C      5.2756     6.0000     0.7244     1.9384     1.9384     0.0000
  1 O      8.7037     8.0000    -0.7037     1.9240     1.9240    -0.0000
  2 Mg     0.0614     0.0000    -0.0614     0.1222     0.1222    -0.0000
  3 O     -0.0140     0.0000     0.0140    -0.0281    -0.0281    -0.0000
  4 O     -0.0146     0.0000     0.0146    -0.0293    -0.0293    -0.0000
  5 O     -0.0130     0.0000     0.0130    -0.0262    -0.0262    -0.0000
  6 O     -0.0131     0.0000     0.0131    -0.0264    -0.0264    -0.0000
  7 O      0.0004     0.0000    -0.0004     0.0008     0.0008     0.0000
  8 Mg     0.0033     0.0000    -0.0033     0.0066     0.0066     0.0000
  9 Mg     0.0034     0.0000    -0.0034     0.0068     0.0068     0.0000
 10 Mg     0.0039     0.0000    -0.0039     0.0078     0.0078     0.0000
 11 Mg     0.0039     0.0000    -0.0039     0.0078     0.0078     0.0000
 12 O      0.0000     0.0000    -0.0000     0.0001     0.0001     0.0000
 13 O      0.0000     0.0000    -0.0000     0.0000     0.0000     0.0000
 14 O      0.0001     0.0000    -0.0001     0.0001     0.0001     0.0000
 15 O      0.0000     0.0000    -0.0000     0.0000     0.0000     0.0000
 16 O     -0.0001     0.0000     0.0001    -0.0003    -0.0003    -0.0000
 17 O     -0.0001     0.0000     0.0001    -0.0003    -0.0003    -0.0000
 18 O     -0.0001     0.0000     0.0001    -0.0002    -0.0002    -0.0000
 19 O     -0.0001     0.0000     0.0001    -0.0002    -0.0002    -0.0000
 20 O     -0.0001     0.0000     0.0001    -0.0002    -0.0002    -0.0000
 21 O     -0.0001     0.0000     0.0001    -0.0002    -0.0002    -0.0000
 22 O     -0.0001     0.0000     0.0001    -0.0003    -0.0003    -0.0000
 23 O     -0.0001     0.0000     0.0001    -0.0002    -0.0002    -0.0000

  Mayer bond orders larger than 0.100000
B(  0-C ,  1-O ) :   1.9108

-------
TIMINGS
-------

Total SCF time: 0 days 0 hours 5 min 44 sec

Total time                  ....     344.814 sec
Sum of individual times     ....     346.082 sec  (100.4%)

SCF preparation             ....       2.268 sec  (  0.7%)
Fock matrix formation       ....     314.799 sec  ( 91.3%)
  Startup                   ....       0.402 sec  (  0.1% of F)
  Split-RI-J                ....      30.123 sec  (  9.6% of F)
  Chain of spheres X        ....     283.580 sec  ( 90.1% of F)
Diagonalization             ....       0.000 sec  (  0.0%)
Density matrix formation    ....       1.549 sec  (  0.4%)
Total Energy calculation    ....       0.747 sec  (  0.2%)
Population analysis         ....       1.515 sec  (  0.4%)
Orbital Transformation      ....       4.367 sec  (  1.3%)
Orbital Orthonormalization  ....       0.000 sec  (  0.0%)
DIIS solution               ....      14.933 sec  (  4.3%)
SOSCF solution              ....       5.831 sec  (  1.7%)
Finished LeanSCF after 345.1 sec

Maximum memory used throughout the entire LEANSCF-calculation: 518.1 MB


           ************************************************************
           *        Program running with 8 parallel MPI-processes     *
           *              working on a common directory               *
           ************************************************************

------------------------------------------------------------------------------
                                ORCA  MP2
------------------------------------------------------------------------------

NOTE: Switching SHARK to Segmented Contraction for MP2
      If that is not desired please turn off the PGCFlag in the input (%shark PGCFlag 0 end)
      Number of basis functions in BAS before restore: 2353
      Number of basis functions in BAS after restore : 2065
Freezing NCore=4 chemical core electrons

-------------
RI-MP2 ENERGY
-------------
Dimension of the orbital basis            ... 2065
Dimension of the AuxC basis               ... 5002
Memory devoted to MP2                     ... 25000 MB
Data format for matrix containers         ... DOUBLE
Compression type for matrix containers    ... UNCOMPRESSED

-----------------------
SHARK RI TRANSFORMATION
-----------------------

Number of basis functions                ...   2065
Number of aux functions                  ...   5002
Number of operators                      ...      1
Generation of IJK                        ... NO
Generation of IAK                        ... YES
Generation of ABK                        ... NO
Orbital Range Operator  0:    2-   6 to    7-2064

Aux basis identifier                     ...   AUXC
Contraction scheme used                  ... SEGMENTED
Do orthogonalization                     ... YES
All operator combinations                ... NO
Transpose (ia|K)                         ... NO
Integral generator used                  ... LIBINT
Starting integral generation + trafo...
Half trafo (segmented) done. Total time = 75.5 sec. integrals= 28.5 sec trafo= 43.0 sec
Integral generation and half transformation done ( 75.5 sec)

Reading or making V^(-1/2)          ... done (  0.6 sec)
Sorting IAK integrals               ... done (  3.4 sec)

SHARK RI integral transformation done. Total time = 79.6 sec.

Opening buffers                              ... done

Starting loop over batches of integrals:

Operator 0  - window                       ... (  2-  6)x(  7-2064)
Operator 0  - Memory available             ... 25000 MB
Operator 0  - Memory needed per MO         ...  78.5 MB
Operator 0  - Number of orbitals per batch ... 1
Operator 0  - Number of batches            ... 1

OPERATOR  0   PASS   0:  MOs     2 ...    2 +    3 ...    3 +    4 ...    4 +    5 ...    5
                            +    6 ...    6
  Reading integrals       ... ok
Time spent in pair loops =     6.587 sec
Deleting buffers (Ka|jb) ...done

-----------------------------------------------
 RI-MP2 CORRELATION ENERGY:     -0.387245110 Eh
-----------------------------------------------


-------
TIMINGS
-------

Total time                :   96.439 sec
Integral trafo            :   79.585 sec ( 82.5%)
I/O of integrals          :    0.046 sec (  0.0%)
K(i,j) operators          :    1.163 sec (  1.2%)
T(i,j) pair energies      :    0.050 sec (  0.1%)
V**(-1/2)                 :   10.266 sec ( 10.6%)


---------------------------------------
MP2 TOTAL ENERGY:     -113.173204891 Eh
---------------------------------------

Maximum memory used throughout the entire MP2-calculation: 636.0 MB

-------------------------   --------------------
FINAL SINGLE POINT ENERGY      -113.173204891441
-------------------------   --------------------



           ************************************************************
           *        Program running with 8 parallel MPI-processes     *
           *              working on a common directory               *
           ************************************************************

------------------------------------------------------------------------------
                              ORCA PROPERTY CALCULATIONS
------------------------------------------------------------------------------

GBWName                                 ... orca.gbw
Number of atoms                         ...     24
Number of basis functions               ...   2353
Max core memory                         ...  25000 MB

Electric properties:
Dipole moment                           ... YES
Quadrupole moment                       ...  NO
Static polarizability (Dipole/Dipole)   ...  NO
Static polarizability (Dipole/Quad.)    ...  NO
Static polarizability (Quad./Quad.)     ...  NO
Static polarizability (Velocity)        ...  NO

Atomic electric properties:
Dipole moment                           ...  NO
Quadrupole moment                       ...  NO
Static polarizability                   ...  NO

Choice of electric origin               ... Center of mass
Position of electric origin             ...     0.000000     0.000000     5.850730

General magnetic properties:
Magnetizability                         ...  NO

EPR properties:
g-Tensor (aka g-matrix)                 ...  NO
Zero-Field splitting spin-orbit         ...  NO
Zero-field splitting spin-spin          ...  NO
Hyperfine couplings                     ...  NO (   0 nuclei)
Quadrupole couplings                    ...  NO (   0 nuclei)
Contact density                         ...  NO (   0 nuclei)

NMR properties:
Chemical shifts                         ...  NO (   0 nuclei)
Spin-rotation constants                 ...  NO (   0 nuclei)
Spin-spin couplings                     ...  NO (   0 nuclei,    0 pairs)

Choice of magnetic origin               ... GIAO
Position of magnetic origin             ...     0.000000     0.000000     0.000000

Properties with geometric perturbations:
SCF Hessian                             ...  NO
IR spectrum                             ...  NO
VCD spectrum                            ...  NO
X-ray spectroscopy properties:
SCF XES/XAS/RIXS spectra                ...  NO


-------------
DIPOLE MOMENT
-------------

Method             : SCF
Type of density    : Electron Density
Multiplicity       :   1
Irrep              :   0
Energy             :  -112.7859597813104671 Eh
Relativity type    :
Basis              : AO
                                X                 Y                 Z
Electronic contribution:      0.000000169      -0.000000074      -0.147905121
Nuclear contribution   :      0.000000000       0.000000000       0.007272920
                        -----------------------------------------
Total Dipole Moment    :      0.000000169      -0.000000074      -0.140632201
                        -----------------------------------------
Magnitude (a.u.)       :      0.140632201
Magnitude (Debye)      :      0.357458648



--------------------
Rotational spectrum
--------------------

Rotational constants in cm-1:             0.000000             1.868304             1.868304
Rotational constants in MHz :             0.000000         56010.355777         56010.355777

Dipole components along the rotational axes:
x,y,z [a.u.] :    -0.140632    -0.000000     0.000000
x,y,z [Debye]:    -0.357459    -0.000000     0.000000



Dipole moment calculation done in   0.2 sec

Maximum memory used throughout the entire PROP-calculation: 351.3 MB

--------------------------------
SUGGESTED CITATIONS FOR THIS RUN
--------------------------------

Below you find a list of papers that are relevant to this ORCA run
We neither can nor want to force you to cite these papers, but we appreciate if you do
You receive ORCA, which is the product of decades of hard work by many enthusiastic individuals, for free
The only thing we kindly ask in return is that you cite our papers,
We deeply appreciate it, if you show your appreciation for ORCA by not just citing the generic ORCA reference.

Please note that relegating all ORCA citations to the supporting information does *not* help us.
SI sections are not indexed - citations you put there will not count into any citation statistics
But we need these citations in order to attract the funding resources that allow us to do what we are doing

Therefore, if you are a happy ORCA user, please consider citing a few of the papers listed below in the main body of your paper

In addition to the list printed below, the program has created the file orca.bibtex that contains the list in bibtex format
You can import this file easily into all common literature databanks and citation aid programs


List of essential papers. We consider these as the minimum necessary citations

  1. Neese,F.
     Software update: the ORCA program system, version 5.0
     WIRES Comput. Molec. Sci., 2022 12(1)e1606
     doi.org/10.1002/wcms.1606

List of papers to cite with high priority. The work reported in these papers was absolutely
necessary for this run to complete.
Our perspective: the developers of density functionals and basis sets usually get cited in chemistry papers
Good! But without the algorithms to do something with them, the functionals or basis sets would not do anything.
Hence, in our opinion, the algorithm design and method developments papers are equally worthy of getting cited

  1. Neese,F.
     An improvement of the resolution of the identity approximation for the formation of the Coulomb matrix
     J. Comp. Chem., 2003 24(14)1740-1747
     doi.org/10.1002/jcc.10318
  2. Neese,F.; Wennmohs,F.; Hansen,A.; Becker,U.
     Efficient, approximate and parallel Hartree-Fock and hybrid DFT calculations. A 'chain-of-spheres' algorithm for the Hartree-Fock exchange
     Chem. Phys., 2009 356(1-3)98-109
     doi.org/10.1016/j.chemphys.2008.10.036
  3. Kossmann,S.; Neese,F.
     Efficient Structure Optimization with Second-Order Many-Body Perturbation Theory: The RIJCOSX-MP2 Method
     J. Theo. Comp. Chem., 2010 6 2325-2338
     doi.org/10.1021/ct100199k
  4. Helmich-Paris,B.; de Souza,B.; Neese,F.; Izsák,R.
     An improved chain of spheres for exchange algorithm
     J. Chem. Phys., 2021 155 104109
     doi.org/doi: 10.1063/5.0058766.
  5. Neese,F.
     The SHARK Integral Generation and Digestion System
     J. Comp. Chem., 2022  1-16
     doi.org/10.1002/jcc.26942

List of suggested additional citations. These are papers that are important in the 'surrounding' of
of this run, or papers that preceded the highly important papers. If you like your results we are grateful for a citation.

  1. Izsak,R.; Neese,F.
     An overlap fitted chain of spheres exchange method
     J. Chem. Phys., 2011 135 144105
     doi.org/10.1063/1.3646921
  2. Izsak,R.; Hansen,A.; Neese,F.
     The resolution of identity and chain of spheres approximations for the LPNO-CCSD singles Fock term
     Molec. Phys., 2012 110 2413-2417
     doi.org/10.1080/00268976.2012.687466
  3. Neese,F.
     The ORCA program system
     WIRES Comput. Molec. Sci., 2012 2(1)73-78
     doi.org/10.1002/wcms.81
  4. Izsak,R.; Neese,F.; Klopper,W.
     Robust fitting techniques in the chain of spheres approximation to the Fock exchange: The role of the complementary space
     J. Chem. Phys., 2013 139
     doi.org/10.1063/1.4819264
  5. Neese,F.
     Software update: the ORCA program system, version 4.0
     WIRES Comput. Molec. Sci., 2018 8(1)1-6
     doi.org/10.1002/wcms.1327
  6. Neese,F.; Wennmohs,F.; Becker,U.; Riplinger,C.
     The ORCA quantum chemistry program package
     J. Chem. Phys., 2020 152 Art. No. L224108
     doi.org/10.1063/5.0004608

List of optional additional citations

  1. Neese,F.
     Approximate second-order SCF convergence for spin unrestricted wavefunctions
     Chem. Phys. Lett., 2000 325(1-3)93-98
     doi.org/10.1016/s0009-2614(00)00662-x

Timings for individual modules:

Sum of individual times          ...      489.725 sec (=   8.162 min)
Startup calculation              ...       27.101 sec (=   0.452 min)   5.5 %
SCF iterations                   ...      353.157 sec (=   5.886 min)  72.1 %
Property calculations            ...        3.901 sec (=   0.065 min)   0.8 %
MP2 module                       ...      105.566 sec (=   1.759 min)  21.6 %
                             ****ORCA TERMINATED NORMALLY****
TOTAL RUN TIME: 0 days 0 hours 8 minutes 11 seconds 713 msec
