 vasp.6.3.0 20Jan22 (build Dec 25 2023 18:06:01) complex                         
 executed on        HPECrayEX_GCC date 2024.01.26  02:56:30
 running  512 mpi-ranks, with    1 threads/rank
 distrk:  each k-point on  512 cores,    1 groups
 distr:  one band on NCORE=   8 cores,   64 groups


--------------------------------------------------------------------------------------------------------


 INCAR:
   SYSTEM = MgO-rocksalt
   ISMEAR = 0
   SIGMA = 0.05
   EDIFF = 1E-5
   ALGO = ALL
   ISTART = 0
   IBRION = -1
   NSW = 0
   ISYM = 2
   ISIF = 2
   DIPOL = 0.5 0.5 0.5
   IDIPOL = 3
   LDIPOL = .TRUE.
   LHFCALC = .TRUE.
   GGA = B5
   AEXX = 0.2
   AGGAX = 0.72
   AGGAC = 0.81
   ALDAC = 0.19
   IVDW = 1
   VDW_S6 = 1.05
   VDW_C6 = 0.63 0.70
   VDW_R0 = 1.243 1.342
   ENCUT = 600
   PREC = Accurate
   LASPH = .TRUE.
   LREAL = .FALSE.
   ISPIN = 1
   NELM = 200
   NELMIN = 8
   NCORE = 8
   KPAR = 1
   LWAVE = .FALSE.
   LCHARG = .FALSE.

 POTCAR:    PAW_PBE Mg_pv 13Apr2007               
 POTCAR:    PAW_PBE O 08Apr2002                   
 -----------------------------------------------------------------------------
|                                                                             |
|           W    W    AA    RRRRR   N    N  II  N    N   GGGG   !!!           |
|           W    W   A  A   R    R  NN   N  II  NN   N  G    G  !!!           |
|           W    W  A    A  R    R  N N  N  II  N N  N  G       !!!           |
|           W WW W  AAAAAA  RRRRR   N  N N  II  N  N N  G  GGG   !            |
|           WW  WW  A    A  R   R   N   NN  II  N   NN  G    G                |
|           W    W  A    A  R    R  N    N  II  N    N   GGGG   !!!           |
|                                                                             |
|     You have selected ISYM=2 for a HF type calculation. This will           |
|     symmetrize the charge density but not the exchange potential. I         |
|     suggest to use ISYM=3 instead. This uses symmetry to obtain the         |
|     orbitals at all k-points in the Brillouin zone, but does not apply      |
|     symmetry to the Hartree potential directly. The resultant charge        |
|     might have lower symmetry than the crystal but, at least, Hartree       |
|     and exchange are fully compatible.                                      |
|                                                                             |
 -----------------------------------------------------------------------------

 POTCAR:    PAW_PBE Mg_pv 13Apr2007               
   SHA256 =  f474ac0dd33840b9ae76c01d57fea79fdf77cdfbb07d5ade72c65f83c709b62b Mg_pv/POTCAR          
   COPYR  = (c) Copyright 13Apr2007 Georg Kresse                                                    
   COPYR  = This file is part of the software VASP. Any use, copying, and all other rights are regul
   COPYR  = If you do not have a valid VASP license, you may not use, copy or distribute this file. 
   VRHFIN =Mg: p6s2                                                                                 
   LEXCH  = PE                                                                                      
   EATOM  =  1056.7344 eV,   77.6678 Ry                                                             
                                                                                                    
   TITEL  = PAW_PBE Mg_pv 13Apr2007                                                                 
   LULTRA =        F    use ultrasoft PP ?                                                          
   IUNSCR =        1    unscreen: 0-lin 1-nonlin 2-no                                               
   RPACOR =    1.500    partial core radius                                                         
   POMASS =   24.305; ZVAL   =    8.000    mass and valenz                                          
   RCORE  =    2.000    outmost cutoff radius                                                       
   RWIGS  =    2.000; RWIGS  =    1.058    wigner-seitz radius (au A)                               
   ENMAX  =  403.929; ENMIN  =  302.947 eV                                                          
   RCLOC  =    1.506    cutoff for local pot                                                        
   LCOR   =        T    correct aug charges                                                         
   LPAW   =        T    paw PP                                                                      
   EAUG   =  758.780                                                                                
   DEXC   =    0.000                                                                                
   RMAX   =    2.045    core radius for proj-oper                                                   
   RAUG   =    1.300    factor for augmentation sphere                                              
   RDEP   =    2.025    radius for radial grids                                                     
   RDEPT  =    1.557    core radius for aug-charge                                                  
                                                                                                    
   Atomic configuration                                                                             
    5 entries                                                                                       
     n  l   j            E        occ.                                                              
     1  0  0.50     -1259.6230   2.0000                                                             
     2  0  0.50       -79.8442   2.0000                                                             
     2  1  1.50       -46.6121   6.0000                                                             
     3  0  0.50        -4.7055   2.0000                                                             
     3  2  1.50        -1.3606   0.0000                                                             
   Description                                                                                      
     l       E           TYP  RCUT    TYP  RCUT                                                     
     1    -46.6121073     23  1.600                                                                 
     1      2.7211652     23  1.600                                                                 
     0     -4.7054661     23  2.000                                                                 
     0     61.2262170     23  2.000                                                                 
     2     -1.3605826     23  2.000                                                                 
  local pseudopotential read in
  partial core-charges read in
  partial kinetic energy density read in
  atomic valenz-charges read in
  non local Contribution for L=           1  read in
    real space projection operators read in
  non local Contribution for L=           1  read in
    real space projection operators read in
  non local Contribution for L=           0  read in
    real space projection operators read in
  non local Contribution for L=           0  read in
    real space projection operators read in
  non local Contribution for L=           2  read in
    real space projection operators read in
    PAW grid and wavefunctions read in

   number of l-projection  operators is LMAX  =           5
   number of lm-projection operators is LMMAX =          13

 POTCAR:    PAW_PBE O 08Apr2002                   
   SHA256 =  818f92134a0a090dccd8ba1447fa70422a3b330e708bb4f08108d8ae51209ddf O/POTCAR              
   COPYR  = (c) Copyright 08Apr2002 Georg Kresse                                                    
   COPYR  = This file is part of the software VASP. Any use, copying, and all other rights are regul
   COPYR  = If you do not have a valid VASP license, you may not use, copy or distribute this file. 
   VRHFIN =O: s2p4                                                                                  
   LEXCH  = PE                                                                                      
   EATOM  =   432.3788 eV,   31.7789 Ry                                                             
                                                                                                    
   TITEL  = PAW_PBE O 08Apr2002                                                                     
   LULTRA =        F    use ultrasoft PP ?                                                          
   IUNSCR =        1    unscreen: 0-lin 1-nonlin 2-no                                               
   RPACOR =    1.200    partial core radius                                                         
   POMASS =   16.000; ZVAL   =    6.000    mass and valenz                                          
   RCORE  =    1.520    outmost cutoff radius                                                       
   RWIGS  =    1.550; RWIGS  =    0.820    wigner-seitz radius (au A)                               
   ENMAX  =  400.000; ENMIN  =  300.000 eV                                                          
   ICORE  =        2    local potential                                                             
   LCOR   =        T    correct aug charges                                                         
   LPAW   =        T    paw PP                                                                      
   EAUG   =  605.392                                                                                
   DEXC   =    0.000                                                                                
   RMAX   =    1.553    core radius for proj-oper                                                   
   RAUG   =    1.300    factor for augmentation sphere                                              
   RDEP   =    1.550    radius for radial grids                                                     
   RDEPT  =    1.329    core radius for aug-charge                                                  
                                                                                                    
   Atomic configuration                                                                             
    4 entries                                                                                       
     n  l   j            E        occ.                                                              
     1  0  0.50      -514.6923   2.0000                                                             
     2  0  0.50       -23.9615   2.0000                                                             
     2  1  0.50        -9.0305   4.0000                                                             
     3  2  1.50        -9.5241   0.0000                                                             
   Description                                                                                      
     l       E           TYP  RCUT    TYP  RCUT                                                     
     0    -23.9615318     23  1.200                                                                 
     0     -9.5240782     23  1.200                                                                 
     1     -9.0304911     23  1.520                                                                 
     1      8.1634956     23  1.520                                                                 
     2     -9.5240782      7  1.500                                                                 
  local pseudopotential read in
  partial core-charges read in
  partial kinetic energy density read in
  kinetic energy density of atom read in
  atomic valenz-charges read in
  non local Contribution for L=           0  read in
    real space projection operators read in
  non local Contribution for L=           0  read in
    real space projection operators read in
  non local Contribution for L=           1  read in
    real space projection operators read in
  non local Contribution for L=           1  read in
    real space projection operators read in
    PAW grid and wavefunctions read in

   number of l-projection  operators is LMAX  =           4
   number of lm-projection operators is LMMAX =           8

 -----------------------------------------------------------------------------
|                                                                             |
|               ----> ADVICE to this user running VASP <----                  |
|                                                                             |
|     You have a (more or less) 'large supercell' and for larger cells it     |
|     might be more efficient to use real-space projection operators.         |
|     Therefore, try LREAL= Auto in the INCAR file.                           |
|     Mind: For very accurate calculation, you might also keep the            |
|     reciprocal projection scheme (i.e. LREAL=.FALSE.).                      |
|                                                                             |
 -----------------------------------------------------------------------------

 -----------------------------------------------------------------------------
|                                                                             |
|               ----> ADVICE to this user running VASP <----                  |
|                                                                             |
|     You enforced a specific xc type in the INCAR file but a different       |
|     type was found in the POTCAR file.                                      |
|     I HOPE YOU KNOW WHAT YOU ARE DOING!                                     |
|                                                                             |
 -----------------------------------------------------------------------------

  PAW_PBE Mg_pv 13Apr2007               :
 energy of atom  1       EATOM=-1056.7344
 kinetic energy error for atom=    0.0221 (will be added to EATOM!!)
  PAW_PBE O 08Apr2002                   :
 energy of atom  2       EATOM= -432.3788
 kinetic energy error for atom=    0.0168 (will be added to EATOM!!)


 POSCAR: Mg  O
  positions in direct lattice
  No initial velocities read in
 exchange correlation table for  LEXCH =       12
   RHO(1)=    0.500       N(1)  =     2000
   RHO(2)=  100.500       N(2)  =     4000



--------------------------------------------------------------------------------------------------------


 ion  position               nearest neighbor table
   1  0.000  0.750  0.352-  33 2.11  35 2.11  36 2.11  43 2.11  52 2.11
   2  0.250  0.000  0.352-  34 2.11  35 2.11  36 2.11  44 2.11  51 2.11
   3  0.000  0.000  0.451-  35 2.11  34 2.11  33 2.11  41 2.11  50 2.11  39 2.12
   4  0.250  0.750  0.451-  36 2.11  34 2.11  33 2.11  42 2.11  49 2.11  40 2.12
   5  0.000  0.750  0.550-  47 2.11  40 2.11  56 2.11  39 2.11  33 2.12  37 2.15
   6  0.250  0.000  0.550-  55 2.11  48 2.11  40 2.11  39 2.11  34 2.12  38 2.15
   7  0.000  0.000  0.649-  37 2.11  38 2.11  45 2.11  54 2.11  39 2.11
   8  0.250  0.750  0.649-  40 2.11  38 2.11  37 2.11  46 2.11  53 2.11
   9  0.000  0.250  0.352-  41 2.11  35 2.11  43 2.11  44 2.11  60 2.11
  10  0.250  0.500  0.352-  42 2.11  36 2.11  43 2.11  44 2.11  59 2.11
  11  0.000  0.500  0.451-  43 2.11  41 2.11  42 2.11  33 2.11  58 2.11  47 2.12
  12  0.250  0.250  0.451-  44 2.11  41 2.11  42 2.11  34 2.11  57 2.11  48 2.12
  13  0.000  0.250  0.550-  47 2.11  48 2.11  64 2.11  39 2.11  41 2.12  45 2.15
  14  0.250  0.500  0.550-  63 2.11  48 2.11  40 2.11  47 2.11  42 2.13  46 2.15
  15  0.000  0.500  0.649-  46 2.10  62 2.10  47 2.11  45 2.11  37 2.11
  16  0.250  0.250  0.649-  48 2.11  45 2.11  38 2.11  46 2.11  61 2.11
  17  0.500  0.750  0.352-  49 2.11  36 2.11  51 2.11  52 2.11  59 2.11
  18  0.750  0.000  0.352-  50 2.11  35 2.11  51 2.11  52 2.11  60 2.11
  19  0.500  0.000  0.451-  51 2.11  49 2.11  50 2.11  34 2.11  57 2.11  55 2.12
  20  0.750  0.750  0.451-  52 2.11  49 2.11  50 2.11  33 2.11  58 2.11  56 2.12
  21  0.500  0.750  0.550-  63 2.11  56 2.11  40 2.11  55 2.11  49 2.13  53 2.15
  22  0.750  0.000  0.550-  55 2.11  56 2.11  64 2.11  39 2.11  50 2.12  54 2.15
  23  0.500  0.000  0.649-  53 2.10  61 2.10  55 2.11  38 2.11  54 2.11
  24  0.750  0.750  0.649-  56 2.11  54 2.11  37 2.11  53 2.11  62 2.11
  25  0.500  0.250  0.352-  57 2.11  51 2.11  44 2.11  59 2.11  60 2.11
  26  0.750  0.500  0.352-  58 2.11  52 2.11  43 2.11  59 2.11  60 2.11
  27  0.500  0.500  0.451-  59 2.11  49 2.11  57 2.11  58 2.11  42 2.11  63 2.13
  28  0.750  0.250  0.451-  60 2.11  50 2.11  57 2.11  58 2.11  41 2.11  64 2.12
  29  0.500  0.250  0.550-  63 2.11  48 2.11  64 2.11  55 2.11  57 2.13  61 2.15
  30  0.750  0.500  0.550-  63 2.11  56 2.11  64 2.11  47 2.11  58 2.13  62 2.15
  31  0.500  0.500  0.651-  46 2.12  53 2.12  61 2.12  62 2.12  63 2.14
  32  0.750  0.250  0.649-  64 2.11  54 2.11  45 2.11  62 2.11  61 2.11
  33  0.000  0.750  0.451-   1 2.11   3 2.11   4 2.11  11 2.11  20 2.11   5 2.12
  34  0.250  0.000  0.451-   2 2.11   3 2.11   4 2.11  12 2.11  19 2.11   6 2.12
  35  0.000  0.000  0.352-   3 2.11   2 2.11   1 2.11   9 2.11  18 2.11
  36  0.250  0.750  0.352-   4 2.11   2 2.11   1 2.11  10 2.11  17 2.11
  37  0.000  0.750  0.651-   7 2.11   8 2.11  24 2.11  15 2.11   5 2.15
  38  0.250  0.000  0.651-   7 2.11   8 2.11  16 2.11  23 2.11   6 2.15
  39  0.000  0.000  0.550-   7 2.11   6 2.11   5 2.11  13 2.11  22 2.11   3 2.12
  40  0.250  0.750  0.550-   8 2.11   6 2.11   5 2.11  14 2.11  21 2.11   4 2.12
  41  0.000  0.250  0.451-   9 2.11   3 2.11  11 2.11  12 2.11  28 2.11  13 2.12
  42  0.250  0.500  0.451-  10 2.11   4 2.11  11 2.11  12 2.11  27 2.11  14 2.13
  43  0.000  0.500  0.352-  11 2.11   9 2.11  10 2.11   1 2.11  26 2.11
  44  0.250  0.250  0.352-  12 2.11   9 2.11  10 2.11   2 2.11  25 2.11
  45  0.000  0.250  0.651-   7 2.11  16 2.11  32 2.11  15 2.11  13 2.15
  46  0.249  0.500  0.651-  15 2.10   8 2.11  16 2.11  31 2.12  14 2.15
  47  0.000  0.500  0.550-  15 2.11  13 2.11   5 2.11  14 2.11  30 2.11  11 2.12
  48  0.250  0.250  0.550-  16 2.11  13 2.11   6 2.11  14 2.11  29 2.11  12 2.12
  49  0.500  0.750  0.451-  17 2.11   4 2.11  19 2.11  20 2.11  27 2.11  21 2.13
  50  0.750  0.000  0.451-  18 2.11   3 2.11  19 2.11  20 2.11  28 2.11  22 2.12
  51  0.500  0.000  0.352-  19 2.11  17 2.11  18 2.11   2 2.11  25 2.11
  52  0.750  0.750  0.352-  20 2.11  17 2.11  18 2.11   1 2.11  26 2.11
  53  0.500  0.751  0.651-  23 2.10   8 2.11  24 2.11  31 2.12  21 2.15
  54  0.750  0.000  0.651-   7 2.11  24 2.11  32 2.11  23 2.11  22 2.15
  55  0.500  0.000  0.550-  23 2.11  22 2.11   6 2.11  21 2.11  29 2.11  19 2.12
  56  0.750  0.750  0.550-  24 2.11  22 2.11   5 2.11  30 2.11  21 2.11  20 2.12
  57  0.500  0.250  0.451-  25 2.11  19 2.11  12 2.11  27 2.11  28 2.11  29 2.13
  58  0.750  0.500  0.451-  26 2.11  20 2.11  11 2.11  27 2.11  28 2.11  30 2.13
  59  0.500  0.500  0.352-  27 2.11  17 2.11  25 2.11  26 2.11  10 2.11
  60  0.750  0.250  0.352-  28 2.11  18 2.11  25 2.11  26 2.11   9 2.11
  61  0.500  0.249  0.651-  23 2.10  16 2.11  32 2.11  31 2.12  29 2.15
  62  0.751  0.500  0.651-  15 2.10  24 2.11  32 2.11  31 2.12  30 2.15
  63  0.500  0.500  0.550-  14 2.11  21 2.11  29 2.11  30 2.11  27 2.13  31 2.14
  64  0.750  0.250  0.550-  32 2.11  22 2.11  13 2.11  30 2.11  29 2.11  28 2.12

  LATTYP: Found a simple tetragonal cell.
 ALAT       =     8.4409846542
 C/A-ratio  =     2.5270438657
  
  Lattice vectors:
  
 A1 = (   8.4409846542,   0.0000000000,   0.0000000000)
 A2 = (   0.0000000000,   8.4409846542,   0.0000000000)
 A3 = (   0.0000000000,   0.0000000000,  21.3307384906)


Analysis of symmetry for initial positions (statically):
=====================================================================
 Subroutine PRICEL returns:
 Original cell was already a primitive cell.
 

 Routine SETGRP: Setting up the symmetry group for a 
 simple tetragonal supercell.


 Subroutine GETGRP returns: Found  8 space group operations
 (whereof  8 operations were pure point group operations)
 out of a pool of 16 trial point group operations.


The static configuration has the point symmetry C_4v.


Analysis of symmetry for dynamics (positions and initial velocities):
=====================================================================
 Subroutine PRICEL returns:
 Original cell was already a primitive cell.
 

 Routine SETGRP: Setting up the symmetry group for a 
 simple tetragonal supercell.


 Subroutine GETGRP returns: Found  8 space group operations
 (whereof  8 operations were pure point group operations)
 out of a pool of 16 trial point group operations.


The dynamic configuration has the point symmetry C_4v.


Analysis of constrained symmetry for selective dynamics:
=====================================================================
 Subroutine PRICEL returns:
 Original cell was already a primitive cell.
 

 Routine SETGRP: Setting up the symmetry group for a 
 simple tetragonal supercell.


 Subroutine GETGRP returns: Found  8 space group operations
 (whereof  8 operations were pure point group operations)
 out of a pool of 16 trial point group operations.


The constrained configuration has the point symmetry C_4v.


 Subroutine INISYM returns: Found  8 space group operations
 (whereof  8 operations are pure point group operations),
 and found     1 'primitive' translations


----------------------------------------------------------------------------------------

                                     Primitive cell                                     

  volume of cell :    1519.8199

  direct lattice vectors                    reciprocal lattice vectors
     8.440984654  0.000000000  0.000000000     0.118469591  0.000000000  0.000000000
     0.000000000  8.440984654  0.000000000     0.000000000  0.118469591  0.000000000
     0.000000000  0.000000000 21.330738491     0.000000000  0.000000000  0.046880702

  length of vectors
     8.440984654  8.440984654 21.330738491     0.118469591  0.118469591  0.046880702

  position of ions in fractional coordinates (direct lattice)
     0.000000000  0.750000000  0.351605267
     0.250000000  0.000000000  0.351605267
     0.000000000  0.000000000  0.450535089
     0.250000000  0.750000000  0.450535089
     0.000000000  0.749939268  0.550083239
     0.250060732  0.000000000  0.550083239
     0.000000000  0.000000000  0.648745309
     0.249858327  0.750141673  0.648569547
     0.000000000  0.250000000  0.351605267
     0.250000000  0.500000000  0.351605267
     0.000000000  0.500000000  0.450535089
     0.250000000  0.250000000  0.450535089
     0.000000000  0.250060732  0.550083239
     0.250378379  0.500000000  0.550219524
     0.000000000  0.500000000  0.648615280
     0.249858327  0.249858327  0.648569547
     0.500000000  0.750000000  0.351605267
     0.750000000  0.000000000  0.351605267
     0.500000000  0.000000000  0.450535089
     0.750000000  0.750000000  0.450535089
     0.500000000  0.749621621  0.550219524
     0.749939268  0.000000000  0.550083239
     0.500000000  0.000000000  0.648615280
     0.750141673  0.750141673  0.648569547
     0.500000000  0.250000000  0.351605267
     0.750000000  0.500000000  0.351605267
     0.500000000  0.500000000  0.450535089
     0.750000000  0.250000000  0.450535089
     0.500000000  0.250378379  0.550219524
     0.749621621  0.500000000  0.550219524
     0.500000000  0.500000000  0.650616960
     0.750141673  0.249858327  0.648569547
     0.000000000  0.750000000  0.450535089
     0.250000000  0.000000000  0.450535089
     0.000000000  0.000000000  0.351605267
     0.250000000  0.750000000  0.351605267
     0.000000000  0.750218533  0.650979255
     0.249781467  0.000000000  0.650979255
     0.000000000  0.000000000  0.549809890
     0.249945770  0.750054230  0.549859113
     0.000000000  0.250000000  0.450535089
     0.250000000  0.500000000  0.450535089
     0.000000000  0.500000000  0.351605267
     0.250000000  0.250000000  0.351605267
     0.000000000  0.249781467  0.650979255
     0.248822710  0.500000000  0.650882872
     0.000000000  0.500000000  0.549762666
     0.249945770  0.249945770  0.549859113
     0.500000000  0.750000000  0.450535089
     0.750000000  0.000000000  0.450535089
     0.500000000  0.000000000  0.351605267
     0.750000000  0.750000000  0.351605267
     0.500000000  0.751177290  0.650882872
     0.750218533  0.000000000  0.650979255
     0.500000000  0.000000000  0.549762666
     0.750054230  0.750054230  0.549859113
     0.500000000  0.250000000  0.450535089
     0.750000000  0.500000000  0.450535089
     0.500000000  0.500000000  0.351605267
     0.750000000  0.250000000  0.351605267
     0.500000000  0.248822710  0.650882872
     0.751177290  0.500000000  0.650882872
     0.500000000  0.500000000  0.550231357
     0.750054230  0.249945770  0.549859113

  ion indices of the primitive-cell ions
   primitive index   ion index
                 1           1
                 2           2
                 3           3
                 4           4
                 5           5
                 6           6
                 7           7
                 8           8
                 9           9
                10          10
                11          11
                12          12
                13          13
                14          14
                15          15
                16          16
                17          17
                18          18
                19          19
                20          20
                21          21
                22          22
                23          23
                24          24
                25          25
                26          26
                27          27
                28          28
                29          29
                30          30
                31          31
                32          32
                33          33
                34          34
                35          35
                36          36
                37          37
                38          38
                39          39
                40          40
                41          41
                42          42
                43          43
                44          44
                45          45
                46          46
                47          47
                48          48
                49          49
                50          50
                51          51
                52          52
                53          53
                54          54
                55          55
                56          56
                57          57
                58          58
                59          59
                60          60
                61          61
                62          62
                63          63
                64          64

----------------------------------------------------------------------------------------



 KPOINTS: pymatgen v2020.8.13 with grid density = 

Automatic generation of k-mesh.
 Grid dimensions read from file:
 generate k-points for:    2    2    1

 Generating k-lattice:

  Cartesian coordinates                     Fractional coordinates (reciprocal lattice)
     0.059234796  0.000000000  0.000000000     0.500000000  0.000000000  0.000000000
     0.000000000  0.059234796  0.000000000     0.000000000  0.500000000  0.000000000
     0.000000000  0.000000000  0.046880702     0.000000000  0.000000000  1.000000000

  Length of vectors
     0.059234796  0.059234796  0.046880702

  Shift w.r.t. Gamma in fractional coordinates (k-lattice)
     0.000000000  0.000000000  0.000000000

 
 Subroutine IBZKPT returns following result:
 ===========================================
 
 Found      3 irreducible k-points:
 
 Following reciprocal coordinates:
            Coordinates               Weight
  0.000000  0.000000  0.000000      1.000000
  0.500000  0.000000  0.000000      2.000000
  0.500000  0.500000  0.000000      1.000000
 
 Following cartesian coordinates:
            Coordinates               Weight
  0.000000  0.000000  0.000000      1.000000
  0.059235  0.000000  0.000000      2.000000
  0.059235  0.059235  0.000000      1.000000
 
 
 Subroutine IBZKPT_HF returns following result:
 ==============================================
 
 Found      4 k-points in 1st BZ
 the following      4 k-points will be used (e.g. in the exchange kernel)
 Following reciprocal coordinates:   # in IRBZ
  0.000000  0.000000  0.000000    0.25000000   1 t-inv F
  0.500000  0.000000  0.000000    0.25000000   2 t-inv F
  0.500000  0.500000  0.000000    0.25000000   3 t-inv F
 -0.000000  0.500000  0.000000    0.25000000   2 t-inv F


--------------------------------------------------------------------------------------------------------




 Dimension of arrays:
   k-points           NKPTS =      3   k-points in BZ     NKDIM =      4   number of bands    NBANDS=    320
   number of dos      NEDOS =    301   number of ions     NIONS =     64
   non local maximal  LDIM  =      5   non local SUM 2l+1 LMDIM =     13
   total plane-waves  NPLWV = 882000
   max r-space proj   IRMAX =      1   max aug-charges    IRDMAX=  11635
   dimension x,y,z NGX =    70 NGY =   70 NGZ =  180
   dimension x,y,z NGXF=   140 NGYF=  140 NGZF=  360
   support grid    NGXF=   140 NGYF=  140 NGZF=  360
   ions per type =              32  32
   NGX,Y,Z   is equivalent  to a cutoff of  13.79, 13.79, 14.03 a.u.
   NGXF,Y,Z  is equivalent  to a cutoff of  27.57, 27.57, 28.06 a.u.

 SYSTEM =  MgO-rocksalt                            
 POSCAR =  Mg  O                                   

 Startparameter for this run:
   NWRITE =      2    write-flag & timer
   PREC   = accura    normal or accurate (medium, high low for compatibility)
   ISTART =      0    job   : 0-new  1-cont  2-samecut
   ICHARG =      2    charge: 1-file 2-atom 10-const
   ISPIN  =      1    spin polarized calculation?
   LNONCOLLINEAR =      F non collinear calculations
   LSORBIT =      F    spin-orbit coupling
   INIWAV =      1    electr: 0-lowe 1-rand  2-diag
   LASPH  =      T    aspherical Exc in radial PAW
 Electronic Relaxation 1
   ENCUT  =  600.0 eV  44.10 Ry    6.64 a.u.  16.86 16.86 42.60*2*pi/ulx,y,z
   ENINI  =  600.0     initial cutoff
   ENAUG  =  758.8 eV  augmentation charge cutoff
   NELM   =    200;   NELMIN=  8; NELMDL= -5     # of ELM steps 
   EDIFF  = 0.1E-04   stopping-criterion for ELM
   LREAL  =      F    real-space projection
   NLSPLINE    = F    spline interpolate recip. space projectors
   LCOMPAT=      F    compatible to vasp.4.4
   GGA_COMPAT  = T    GGA compatible to vasp.4.4-vasp.4.6
   LMAXPAW     = -100 max onsite density
   LMAXMIX     =    2 max onsite mixed and CHGCAR
   VOSKOWN=      0    Vosko Wilk Nusair interpolation
   ROPT   =    0.00000   0.00000
 Ionic relaxation
   EDIFFG = 0.1E-03   stopping-criterion for IOM
   NSW    =      0    number of steps for IOM
   NBLOCK =      1;   KBLOCK =      1    inner block; outer block 
   IBRION =     -1    ionic relax: 0-MD 1-quasi-New 2-CG
   NFREE  =      0    steps in history (QN), initial steepest desc. (CG)
   ISIF   =      2    stress and relaxation
   IWAVPR =     10    prediction:  0-non 1-charg 2-wave 3-comb
   ISYM   =      2    0-nonsym 1-usesym 2-fastsym
   LCORR  =      T    Harris-Foulkes like correction to forces

   POTIM  = 0.5000    time-step for ionic-motion
   TEIN   =    0.0    initial temperature
   TEBEG  =    0.0;   TEEND  =   0.0 temperature during run
   SMASS  =  -3.00    Nose mass-parameter (am)
   estimated Nose-frequenzy (Omega)   =  0.10E-29 period in steps = 0.13E+47 mass=  -0.163E-26a.u.
   SCALEE = 1.0000    scale energy and forces
   NPACO  =    256;   APACO  = 10.0  distance and # of slots for P.C.
   PSTRESS=    0.0 pullay stress

  Mass of Ions in am
   POMASS =  24.30 16.00
  Ionic Valenz
   ZVAL   =   8.00  6.00
  Atomic Wigner-Seitz radii
   RWIGS  =  -1.00 -1.00
  virtual crystal weights 
   VCA    =   1.00  1.00
   NELECT =     448.0000    total number of electrons
   NUPDOWN=      -1.0000    fix difference up-down

 DOS related values:
   EMIN   =  10.00;   EMAX   =-10.00  energy-range for DOS
   EFERMI =   0.00
   ISMEAR =     0;   SIGMA  =   0.05  broadening in eV -4-tet -1-fermi 0-gaus

 Electronic relaxation 2 (details)
   IALGO  =     58    algorithm
   LDIAG  =      T    sub-space diagonalisation (order eigenvalues)
   LSUBROT=      F    optimize rotation matrix (better conditioning)
   TURBO    =      0    0=normal 1=particle mesh
   IRESTART =      0    0=no restart 2=restart with 2 vectors
   NREBOOT  =      0    no. of reboots
   NMIN     =      0    reboot dimension
   EREF     =   0.00    reference energy to select bands
   IMIX   =      4    mixing-type and parameters
     AMIX     =   0.40;   BMIX     =  1.00
     AMIX_MAG =   1.60;   BMIX_MAG =  1.00
     AMIN     =   0.10
     WC   =   100.;   INIMIX=   1;  MIXPRE=   1;  MAXMIX= -45

 Intra band minimization:
   WEIMIN = 0.0000     energy-eigenvalue tresh-hold
   EBREAK =  0.78E-08  absolut break condition
   DEPER  =   0.30     relativ break condition  

   TIME   =   0.40     timestep for ELM

  volume/ion in A,a.u.               =      23.75       160.25
  Fermi-wavevector in a.u.,A,eV,Ry     =   1.089524  2.058902 16.150966  1.187063
  Thomas-Fermi vector in A             =   2.225729

 Write flags
   LWAVE        =      F    write WAVECAR
   LDOWNSAMPLE  =      F    k-point downsampling of WAVECAR
   LCHARG       =      F    write CHGCAR
   LVTOT        =      F    write LOCPOT, total local potential
   LVHAR        =      F    write LOCPOT, Hartree potential only
   LELF         =      F    write electronic localiz. function (ELF)
   LORBIT       =      0    0 simple, 1 ext, 2 COOP (PROOUT), +10 PAW based schemes


 Dipole corrections
   LMONO  =      F    monopole corrections only (constant potential shift)
   LDIPOL =      T    correct potential (dipole corrections)
   IDIPOL =      3    1-x, 2-y, 3-z, 4-all directions 
   EPSILON=  1.0000000 bulk dielectric constant

 Exchange correlation treatment:
   GGA     =    B5    GGA type
   LEXCH   =    12    internal setting for exchange type
   LIBXC   =     F    Libxc                    
   VOSKOWN =     0    Vosko Wilk Nusair interpolation
   EXXOEP  =     0    0=HF, 1=EXX-LHF (local Hartree Fock) 2=EXX OEP
   LHFCALC =     T    Hartree Fock is set to
   LSYMGRAD=     F    symmetrize gradient (conserves proper symmetry)
   PRECFOCK=normal    Normal, Fast or Accurate (Low or Medium for compatibility)
   LRHFCALC=     F    long range Hartree Fock
   LRSCOR  =     F    long range correlation only (use DFT for short range part)
   LTHOMAS =     F    Thomas Fermi screening in HF
   LMODELHF=     F    short range full HF, long range fraction AEXX
   LFOCKACE=     T    use Adeptively-Compressed-Exchange operator
   ENCUT4O =  -1.0   cutoff for four orbital integrals eV
   LMAXFOCK=     4    L truncation for augmentation on plane wave grid
   LMAXFOCKAE=  -1    L truncation for all-electron charge restoration on plane wave grid
   NMAXFOCKAE=   1    number of basis functions for all-electron charge restoration
   LFOCKAEDFT=     F  apply the AE augmentation even for DFT
   NKREDX  =     1    reduce k-point grid by
   NKREDY  =     1    reduce k-point grid by
   NKREDZ  =     1    reduce k-point grid by
   SHIFTRED=     F    shift reduced grid of Gamma
   HFKIDENT=     F    idential grid for each k-point
   ODDONLY =     F    use only odd q-grid points
   EVENONLY=     F    use only even q-grid points
   HFALPHA =   -1.0000 decay constant for conv. correction
   MCALPHA =    0.0000 extent of test-charge in conv. correction in multipole expansion
   AEXX    =    0.2000 exact exchange contribution
   HFSCREEN=    0.0000 screening length (either q_TF or 0.3 A-1)
   HFSCREENC=   0.0000 screening length for correlation (either q_TF or 0.3 A-1)
   HFRCUT  =    0.0000 spherical cutoff for potential kernel
   ALDAX   =    0.8000 LDA exchange part
   AGGAX   =    0.7200 GGA exchange part
   ALDAC   =    0.1900 LDA correlation
   AGGAC   =    0.8100 GGA correlation
   ENCUTFOCK=  -1.0 apply spherical cutoff to Coloumb kernel
   NBANDSGWLOW=     1    first orbital included in HF term
   NBLOCK_FOCK=    64    blocking factor in FOCK_ACC

 Linear response parameters
   LEPSILON=     F    determine dielectric tensor
   LRPA    =     F    only Hartree local field effects (RPA)
   LNABLA  =     F    use nabla operator in PAW spheres
   LVEL    =     F    velocity operator in full k-point grid
   CSHIFT  =0.1000    complex shift for real part using Kramers Kronig
   OMEGAMAX=  -1.0    maximum frequency
   DEG_THRESHOLD= 0.2000000E-02 threshold for treating states as degnerate
   RTIME   =   -0.100 relaxation time in fs
  (WPLASMAI=    0.000 imaginary part of plasma frequency in eV, 0.658/RTIME)
   DFIELD  = 0.0000000 0.0000000 0.0000000 field for delta impulse in time

  Optional k-point grid parameters
   LKPOINTS_OPT  =     F    use optional k-point grid
   KPOINTS_OPT_MODE=     1    mode for optional k-point grid

 Orbital magnetization related:
   ORBITALMAG=     F  switch on orbital magnetization
   LCHIMAG   =     F  perturbation theory with respect to B field
   DQ        =  0.001000  dq finite difference perturbation B field
   LLRAUG    =     F  two centre corrections for induced B field



--------------------------------------------------------------------------------------------------------


 Static calculation
 charge density and potential will be updated during run
 non-spin polarized calculation
 Conjugate gradient for all bands (Freysoldt, et al. PRB 79, 241103 (2009))
 preconditioned conjugated gradient                                        
 perform sub-space diagonalisation
    before iterative eigenvector-optimisation
 modified Broyden-mixing scheme, WC =      100.0
 initial mixing is a Kerker type mixing with AMIX =  0.4000 and BMIX =      1.0000
 Hartree-type preconditioning will be used
 using additional bands           96
 reciprocal scheme for non local part
 use partial core corrections
 no Harris-corrections to forces 
 use gradient corrections 
 use of overlap-Matrix (Vanderbilt PP)
 Gauss-broadening in eV      SIGMA  =   0.05


--------------------------------------------------------------------------------------------------------


  energy-cutoff  :      600.00
  volume of cell :     1519.82
      direct lattice vectors                 reciprocal lattice vectors
     8.440984654  0.000000000  0.000000000     0.118469591  0.000000000  0.000000000
     0.000000000  8.440984654  0.000000000     0.000000000  0.118469591  0.000000000
     0.000000000  0.000000000 21.330738491     0.000000000  0.000000000  0.046880702

  length of vectors
     8.440984654  8.440984654 21.330738491     0.118469591  0.118469591  0.046880702



 k-points in units of 2pi/SCALE and weight: pymatgen v2020.8.13 with grid density = 
   0.00000000  0.00000000  0.00000000       0.250
   0.05923480  0.00000000  0.00000000       0.500
   0.05923480  0.05923480  0.00000000       0.250

 k-points in reciprocal lattice and weights: pymatgen v2020.8.13 with grid density = 
   0.00000000  0.00000000  0.00000000       0.250
   0.50000000  0.00000000  0.00000000       0.500
   0.50000000  0.50000000  0.00000000       0.250

 position of ions in fractional coordinates (direct lattice) 
   0.00000000  0.75000000  0.35160527
   0.25000000  0.00000000  0.35160527
   0.00000000  0.00000000  0.45053509
   0.25000000  0.75000000  0.45053509
   0.00000000  0.74993927  0.55008324
   0.25006073  0.00000000  0.55008324
   0.00000000  0.00000000  0.64874531
   0.24985833  0.75014167  0.64856955
   0.00000000  0.25000000  0.35160527
   0.25000000  0.50000000  0.35160527
   0.00000000  0.50000000  0.45053509
   0.25000000  0.25000000  0.45053509
   0.00000000  0.25006073  0.55008324
   0.25037838  0.50000000  0.55021952
   0.00000000  0.50000000  0.64861528
   0.24985833  0.24985833  0.64856955
   0.50000000  0.75000000  0.35160527
   0.75000000  0.00000000  0.35160527
   0.50000000  0.00000000  0.45053509
   0.75000000  0.75000000  0.45053509
   0.50000000  0.74962162  0.55021952
   0.74993927  0.00000000  0.55008324
   0.50000000  0.00000000  0.64861528
   0.75014167  0.75014167  0.64856955
   0.50000000  0.25000000  0.35160527
   0.75000000  0.50000000  0.35160527
   0.50000000  0.50000000  0.45053509
   0.75000000  0.25000000  0.45053509
   0.50000000  0.25037838  0.55021952
   0.74962162  0.50000000  0.55021952
   0.50000000  0.50000000  0.65061696
   0.75014167  0.24985833  0.64856955
   0.00000000  0.75000000  0.45053509
   0.25000000  0.00000000  0.45053509
   0.00000000  0.00000000  0.35160527
   0.25000000  0.75000000  0.35160527
   0.00000000  0.75021853  0.65097926
   0.24978147  0.00000000  0.65097926
   0.00000000  0.00000000  0.54980989
   0.24994577  0.75005423  0.54985911
   0.00000000  0.25000000  0.45053509
   0.25000000  0.50000000  0.45053509
   0.00000000  0.50000000  0.35160527
   0.25000000  0.25000000  0.35160527
   0.00000000  0.24978147  0.65097926
   0.24882271  0.50000000  0.65088287
   0.00000000  0.50000000  0.54976267
   0.24994577  0.24994577  0.54985911
   0.50000000  0.75000000  0.45053509
   0.75000000  0.00000000  0.45053509
   0.50000000  0.00000000  0.35160527
   0.75000000  0.75000000  0.35160527
   0.50000000  0.75117729  0.65088287
   0.75021853  0.00000000  0.65097926
   0.50000000  0.00000000  0.54976267
   0.75005423  0.75005423  0.54985911
   0.50000000  0.25000000  0.45053509
   0.75000000  0.50000000  0.45053509
   0.50000000  0.50000000  0.35160527
   0.75000000  0.25000000  0.35160527
   0.50000000  0.24882271  0.65088287
   0.75117729  0.50000000  0.65088287
   0.50000000  0.50000000  0.55023136
   0.75005423  0.24994577  0.54985911

 position of ions in cartesian coordinates  (Angst):
   0.00000000  6.33073849  7.50000000
   2.11024616  0.00000000  7.50000000
   0.00000000  0.00000000  9.61024616
   2.11024616  6.33073849  9.61024616
   0.00000000  6.33022585 11.73368172
   2.11075880  0.00000000 11.73368172
   0.00000000  0.00000000 13.83821654
   2.10905031  6.33193435 13.83446740
   0.00000000  2.11024616  7.50000000
   2.11024616  4.22049233  7.50000000
   0.00000000  4.22049233  9.61024616
   2.11024616  2.11024616  9.61024616
   0.00000000  2.11075880 11.73368172
   2.11344006  4.22049233 11.73658877
   0.00000000  4.22049233 13.83544293
   2.10905031  2.10905031 13.83446740
   4.22049233  6.33073849  7.50000000
   6.33073849  0.00000000  7.50000000
   4.22049233  0.00000000  9.61024616
   6.33073849  6.33073849  9.61024616
   4.22049233  6.32754460 11.73658877
   6.33022585  0.00000000 11.73368172
   4.22049233  0.00000000 13.83544293
   6.33193435  6.33193435 13.83446740
   4.22049233  2.11024616  7.50000000
   6.33073849  4.22049233  7.50000000
   4.22049233  4.22049233  9.61024616
   6.33073849  2.11024616  9.61024616
   4.22049233  2.11344006 11.73658877
   6.32754460  4.22049233 11.73658877
   4.22049233  4.22049233 13.87814023
   6.33193435  2.10905031 13.83446740
   0.00000000  6.33073849  9.61024616
   2.11024616  0.00000000  9.61024616
   0.00000000  0.00000000  7.50000000
   2.11024616  6.33073849  7.50000000
   0.00000000  6.33258312 13.88586825
   2.10840153  0.00000000 13.88586825
   0.00000000  0.00000000 11.72785099
   2.10978841  6.33119624 11.72890095
   0.00000000  2.11024616  9.61024616
   2.11024616  4.22049233  9.61024616
   0.00000000  4.22049233  7.50000000
   2.11024616  2.11024616  7.50000000
   0.00000000  2.10840153 13.88586825
   2.10030867  4.22049233 13.88381232
   0.00000000  4.22049233 11.72684365
   2.10978841  2.10978841 11.72890095
   4.22049233  6.33073849  9.61024616
   6.33073849  0.00000000  9.61024616
   4.22049233  0.00000000  7.50000000
   6.33073849  6.33073849  7.50000000
   4.22049233  6.34067598 13.88381232
   6.33258312  0.00000000 13.88586825
   4.22049233  0.00000000 11.72684365
   6.33119624  6.33119624 11.72890095
   4.22049233  2.11024616  9.61024616
   6.33073849  4.22049233  9.61024616
   4.22049233  4.22049233  7.50000000
   6.33073849  2.11024616  7.50000000
   4.22049233  2.10030867 13.88381232
   6.34067598  4.22049233 13.88381232
   4.22049233  4.22049233 11.73684118
   6.33119624  2.10978841 11.72890095



--------------------------------------------------------------------------------------------------------


 k-point   1 :   0.0000 0.0000 0.0000  plane waves:   50745
 k-point   2 :   0.5000 0.0000 0.0000  plane waves:   50798
 k-point   3 :   0.5000 0.5000 0.0000  plane waves:   50752

 maximum and minimum number of plane-waves per node :      6394     6276

 maximum number of plane-waves:     50798
 maximum index in each direction: 
   IXMAX=   16   IYMAX=   16   IZMAX=   42
   IXMIN=  -17   IYMIN=  -17   IZMIN=  -42


 parallel 3D FFT for wavefunctions:
    minimum data exchange during FFTs selected (reduces bandwidth)
 parallel 3D FFT for charge:
    minimum data exchange during FFTs selected (reduces bandwidth)


 FFT grid for exact exchange (Hartree Fock) 
  NGX = 54; NGY = 54; NGZ =128


 Radii for the augmentation spheres in the non-local exchange
 for species   1 augmentation radius   1.037 (default was   0.829)
       energy cutoff for augmentation   2400.0
 for species   2 augmentation radius   0.902 (default was   0.722)
       energy cutoff for augmentation   2400.0

 real space projection operators:
  total allocation   :       8861.48 KBytes
  max/ min on nodes  :       1237.98        814.39

 Maximum index for augmentation-charges in exchange          164
  SETUP_FOCK is finished

 total amount of memory used by VASP MPI-rank0    63371. kBytes
=======================================================================

   base      :      30000. kBytes
   nonl-proj :      10652. kBytes
   fftplans  :       7742. kBytes
   grid      :       7379. kBytes
   one-center:         64. kBytes
   HF        :         67. kBytes
   nonlr-proj:       2721. kBytes
   wavefun   :       4746. kBytes

     INWAV:  cpu time      0.0001: real time      0.0002
 Broyden mixing: mesh for mixing (old mesh)
   NGX = 33   NGY = 33   NGZ = 85
  (NGX  =140   NGY  =140   NGZ  =360)
  gives a total of  92565 points

 initial charge density was supplied:
 charge density of overlapping atoms calculated
 number of electron     448.0000000 magnetization 
 keeping initial charge density in first step


--------------------------------------------------------------------------------------------------------


 Maximum index for augmentation-charges          608 (set IRDMAX)


--------------------------------------------------------------------------------------------------------


    FEWALD:  cpu time      0.0024: real time      0.0025


--------------------------------------- Iteration      1(   1)  ---------------------------------------


    POTLOK:  cpu time      0.0759: real time      0.0765
    SETDIJ:  cpu time      0.1555: real time      0.1556
    TRIAL :  cpu time     18.6820: real time     18.6893
    CORREC:  cpu time      0.0011: real time      0.0011
    --------------------------------------------
      LOOP:  cpu time     18.9221: real time     18.9301

 eigenvalue-minimisations  :  2304
 total energy-change (2. order) : 0.1256373E+04  (-0.3048063E+05)
 number of electron     448.0000000 magnetization 
 augmentation part      448.0000000 magnetization 

 DIPCOR: dipole corrections for dipol
 direction  3 min pos     1,
 dipolmoment           0.000000      0.000000     -0.000006 electrons x Angstroem
 Tr[quadrupol]     -5963.452449

 energy correction for charged system         0.000000 eV
 dipol+quadrupol energy correction           -0.000000 eV
 added-field ion interaction          0.000003 eV  (added to PSCEN)


 Free energy of the ion-electron system (eV)
  ---------------------------------------------------
  alpha Z        PSCENC =       875.25928826
  Ewald energy   TEWEN  =    140467.92172078
  -Hartree energ DENC   =   -175972.37177747
  -exchange      EXHF   =         0.00000000
  -V(xc)+E(xc)   XCENC  =      1749.49614755
  PAW double counting   =     31854.93933934   -38018.55599435
  entropy T*S    EENTRO =        -0.01870409
  eigenvalues    EBANDS =     -7319.84663164
  atomic energy  EATOM  =     47619.54939170
  ---------------------------------------------------
  free energy    TOTEN  =      1256.37278006 eV

  energy without entropy =     1256.39148415  energy(sigma->0) =     1256.38213211
  exchange ACFDT corr.  =         0.00000000  see jH, gK, PRB 81, 115126


--------------------------------------------------------------------------------------------------------




--------------------------------------- Iteration      1(   2)  ---------------------------------------


    TRIAL :  cpu time      3.2742: real time      3.2757
    CORREC:  cpu time      0.0002: real time      0.0002
    --------------------------------------------
      LOOP:  cpu time      3.2828: real time      3.2885

 eigenvalue-minimisations  :  2304
 total energy-change (2. order) :-0.4165315E+04  (-0.4093627E+04)
 number of electron     448.0000000 magnetization 
 augmentation part      448.0000000 magnetization 

 DIPCOR: dipole corrections for dipol
 direction  3 min pos     1,
 dipolmoment           0.000000      0.000000     -0.000006 electrons x Angstroem
 Tr[quadrupol]     -5963.452449

 energy correction for charged system         0.000000 eV
 dipol+quadrupol energy correction           -0.000000 eV
 added-field ion interaction          0.000003 eV  (added to PSCEN)


 Free energy of the ion-electron system (eV)
  ---------------------------------------------------
  alpha Z        PSCENC =       875.25928826
  Ewald energy   TEWEN  =    140467.92172078
  -Hartree energ DENC   =   -175972.37177747
  -exchange      EXHF   =         0.00000000
  -V(xc)+E(xc)   XCENC  =      1749.49614755
  PAW double counting   =     31854.93933934   -38018.55599435
  entropy T*S    EENTRO =        -0.00000000
  eigenvalues    EBANDS =    -11485.18074653
  atomic energy  EATOM  =     47619.54939170
  ---------------------------------------------------
  free energy    TOTEN  =     -2908.94263074 eV

  energy without entropy =    -2908.94263074  energy(sigma->0) =    -2908.94263074
  exchange ACFDT corr.  =         0.00000000  see jH, gK, PRB 81, 115126


--------------------------------------------------------------------------------------------------------




--------------------------------------- Iteration      1(   3)  ---------------------------------------


    TRIAL :  cpu time      3.4302: real time      3.4314
    CORREC:  cpu time      0.0002: real time      0.0002
    --------------------------------------------
      LOOP:  cpu time      3.4428: real time      3.4444

 eigenvalue-minimisations  :  2304
 total energy-change (2. order) :-0.3046707E+03  (-0.3025718E+03)
 number of electron     448.0000000 magnetization 
 augmentation part      448.0000000 magnetization 

 DIPCOR: dipole corrections for dipol
 direction  3 min pos     1,
 dipolmoment           0.000000      0.000000     -0.000006 electrons x Angstroem
 Tr[quadrupol]     -5963.452449

 energy correction for charged system         0.000000 eV
 dipol+quadrupol energy correction           -0.000000 eV
 added-field ion interaction          0.000003 eV  (added to PSCEN)


 Free energy of the ion-electron system (eV)
  ---------------------------------------------------
  alpha Z        PSCENC =       875.25928826
  Ewald energy   TEWEN  =    140467.92172078
  -Hartree energ DENC   =   -175972.37177747
  -exchange      EXHF   =         0.00000000
  -V(xc)+E(xc)   XCENC  =      1749.49614755
  PAW double counting   =     31854.93933934   -38018.55599435
  entropy T*S    EENTRO =        -0.00000000
  eigenvalues    EBANDS =    -11789.85141019
  atomic energy  EATOM  =     47619.54939170
  ---------------------------------------------------
  free energy    TOTEN  =     -3213.61329440 eV

  energy without entropy =    -3213.61329440  energy(sigma->0) =    -3213.61329440
  exchange ACFDT corr.  =         0.00000000  see jH, gK, PRB 81, 115126


--------------------------------------------------------------------------------------------------------




--------------------------------------- Iteration      1(   4)  ---------------------------------------


    TRIAL :  cpu time      3.4277: real time      3.4297
    CORREC:  cpu time      0.0002: real time      0.0002
    --------------------------------------------
      LOOP:  cpu time      3.4413: real time      3.4433

 eigenvalue-minimisations  :  2304
 total energy-change (2. order) :-0.5770213E+01  (-0.5764434E+01)
 number of electron     448.0000000 magnetization 
 augmentation part      448.0000000 magnetization 

 DIPCOR: dipole corrections for dipol
 direction  3 min pos     1,
 dipolmoment           0.000000      0.000000     -0.000006 electrons x Angstroem
 Tr[quadrupol]     -5963.452449

 energy correction for charged system         0.000000 eV
 dipol+quadrupol energy correction           -0.000000 eV
 added-field ion interaction          0.000003 eV  (added to PSCEN)


 Free energy of the ion-electron system (eV)
  ---------------------------------------------------
  alpha Z        PSCENC =       875.25928826
  Ewald energy   TEWEN  =    140467.92172078
  -Hartree energ DENC   =   -175972.37177747
  -exchange      EXHF   =         0.00000000
  -V(xc)+E(xc)   XCENC  =      1749.49614755
  PAW double counting   =     31854.93933934   -38018.55599435
  entropy T*S    EENTRO =        -0.00000000
  eigenvalues    EBANDS =    -11795.62162318
  atomic energy  EATOM  =     47619.54939170
  ---------------------------------------------------
  free energy    TOTEN  =     -3219.38350738 eV

  energy without entropy =    -3219.38350738  energy(sigma->0) =    -3219.38350738
  exchange ACFDT corr.  =         0.00000000  see jH, gK, PRB 81, 115126


--------------------------------------------------------------------------------------------------------




--------------------------------------- Iteration      1(   5)  ---------------------------------------


    POTLOK:  cpu time      0.1622: real time      0.1622
    SETDIJ:  cpu time      0.5185: real time      0.5186
    TRIAL :  cpu time    100.5460: real time    100.6137
    CORREC:  cpu time      0.0002: real time      0.0002
    CHARGE:  cpu time      0.1647: real time      0.1653
    --------------------------------------------
      LOOP:  cpu time    101.4653: real time    101.5764

 eigenvalue-minimisations  :  2240
 total energy-change (2. order) : 0.2702033E+04  (-0.1408071E+01)
 number of electron     447.9999542 magnetization 
 augmentation part      160.0211269 magnetization 

 DIPCOR: dipole corrections for dipol
 direction  3 min pos     1,
 dipolmoment           0.000000      0.000000     -0.000006 electrons x Angstroem
 Tr[quadrupol]     -5963.452449

 energy correction for charged system         0.000000 eV
 dipol+quadrupol energy correction           -0.000000 eV
 added-field ion interaction          0.000003 eV  (added to PSCEN)


 Free energy of the ion-electron system (eV)
  ---------------------------------------------------
  alpha Z        PSCENC =       875.25928826
  Ewald energy   TEWEN  =    140467.92172078
  -Hartree energ DENC   =   -175972.37177747
  -exchange      EXHF   =      1335.96474863
  -V(xc)+E(xc)   XCENC  =      1391.40948271
  PAW double counting   =     32187.05919258   -35867.17307802
  entropy T*S    EENTRO =        -0.00000000
  eigenvalues    EBANDS =    -12554.96912428
  atomic energy  EATOM  =     47619.54939170
  ---------------------------------------------------
  free energy    TOTEN  =      -517.35015513 eV

  energy without entropy =     -517.35015513  energy(sigma->0) =     -517.35015513
  exchange ACFDT corr.  =        -0.00000000  see jH, gK, PRB 81, 115126


--------------------------------------------------------------------------------------------------------




--------------------------------------- Iteration      1(   6)  ---------------------------------------


    POTLOK:  cpu time      0.1610: real time      0.1611
    SETDIJ:  cpu time      0.5178: real time      0.5184
    TRIAL :  cpu time     97.8800: real time     97.9491
    CORREC:  cpu time     98.7654: real time     98.8327
    CHARGE:  cpu time      0.1303: real time      0.1303
    --------------------------------------------
      LOOP:  cpu time    197.4676: real time    197.6048

 eigenvalue-minimisations  :     0
 total energy-change (2. order) : 0.2269001E+03  (-0.1202778E+03)
 number of electron     447.9999549 magnetization 
 augmentation part      156.5892746 magnetization 

 DIPCOR: dipole corrections for dipol
 direction  3 min pos     1,
 dipolmoment           0.000000      0.000000      0.327028 electrons x Angstroem
 Tr[quadrupol]     -5995.513579

 energy correction for charged system         0.000000 eV
 dipol+quadrupol energy correction           -0.006367 eV
 added-field ion interaction         -0.178642 eV  (added to PSCEN)


 Free energy of the ion-electron system (eV)
  ---------------------------------------------------
  alpha Z        PSCENC =       874.94665426
  Ewald energy   TEWEN  =    140467.92172078
  -Hartree energ DENC   =   -180047.84071260
  -exchange      EXHF   =      1343.44130300
  -V(xc)+E(xc)   XCENC  =      1507.28166540
  PAW double counting   =     36919.88907835   -40560.49813387
  entropy T*S    EENTRO =        -0.00000000
  eigenvalues    EBANDS =     -8415.14106089
  atomic energy  EATOM  =     47619.54939170
  ---------------------------------------------------
  free energy    TOTEN  =      -290.45009389 eV

  energy without entropy =     -290.45009389  energy(sigma->0) =     -290.45009389
  exchange ACFDT corr.  =         0.00000000  see jH, gK, PRB 81, 115126


--------------------------------------------------------------------------------------------------------




--------------------------------------- Iteration      1(   7)  ---------------------------------------


    POTLOK:  cpu time      0.2035: real time      0.2036
    SETDIJ:  cpu time      0.5163: real time      0.5166
    TRIAL :  cpu time     97.3966: real time     97.4626
    CORREC:  cpu time     96.8388: real time     96.9070
    CHARGE:  cpu time      0.1327: real time      0.1327
    --------------------------------------------
      LOOP:  cpu time    195.1011: real time    195.2359

 eigenvalue-minimisations  :     0
 total energy-change (2. order) :-0.1208756E+03  (-0.1034171E+02)
 number of electron     447.9999554 magnetization 
 augmentation part      154.5625277 magnetization 

 DIPCOR: dipole corrections for dipol
 direction  3 min pos     1,
 dipolmoment           0.000000      0.000000      0.250739 electrons x Angstroem
 Tr[quadrupol]     -6005.587031

 energy correction for charged system         0.000000 eV
 dipol+quadrupol energy correction           -0.003743 eV
 added-field ion interaction         -0.136968 eV  (added to PSCEN)


 Free energy of the ion-electron system (eV)
  ---------------------------------------------------
  alpha Z        PSCENC =       875.05881749
  Ewald energy   TEWEN  =    140467.92172078
  -Hartree energ DENC   =   -177979.34771432
  -exchange      EXHF   =      1291.03322523
  -V(xc)+E(xc)   XCENC  =      1443.40498442
  PAW double counting   =     35705.28951762   -39401.18923228
  entropy T*S    EENTRO =        -0.00000000
  eigenvalues    EBANDS =    -10433.04641579
  atomic energy  EATOM  =     47619.54939170
  ---------------------------------------------------
  free energy    TOTEN  =      -411.32570515 eV

  energy without entropy =     -411.32570515  energy(sigma->0) =     -411.32570515
  exchange ACFDT corr.  =        -0.00000000  see jH, gK, PRB 81, 115126


--------------------------------------------------------------------------------------------------------




--------------------------------------- Iteration      1(   8)  ---------------------------------------


    POTLOK:  cpu time      0.1714: real time      0.1714
    SETDIJ:  cpu time      0.5201: real time      0.5206
    TRIAL :  cpu time     96.9891: real time     97.0555
    CORREC:  cpu time     98.0312: real time     98.0959
    CHARGE:  cpu time      0.1312: real time      0.1312
    --------------------------------------------
      LOOP:  cpu time    195.8563: real time    195.9882

 eigenvalue-minimisations  :     0
 total energy-change (2. order) :-0.1040660E+02  (-0.6888668E+01)
 number of electron     447.9999553 magnetization 
 augmentation part      154.6954486 magnetization 

 DIPCOR: dipole corrections for dipol
 direction  3 min pos     1,
 dipolmoment           0.000000      0.000000      0.173117 electrons x Angstroem
 Tr[quadrupol]     -6006.121598

 energy correction for charged system         0.000000 eV
 dipol+quadrupol energy correction           -0.001784 eV
 added-field ion interaction         -0.094567 eV  (added to PSCEN)


 Free energy of the ion-electron system (eV)
  ---------------------------------------------------
  alpha Z        PSCENC =       875.14208389
  Ewald energy   TEWEN  =    140467.92172078
  -Hartree energ DENC   =   -178048.56275851
  -exchange      EXHF   =      1284.35474602
  -V(xc)+E(xc)   XCENC  =      1434.31203878
  PAW double counting   =     35588.49614028   -39220.46937331
  entropy T*S    EENTRO =        -0.00000000
  eigenvalues    EBANDS =    -10422.47629564
  atomic energy  EATOM  =     47619.54939170
  ---------------------------------------------------
  free energy    TOTEN  =      -421.73230601 eV

  energy without entropy =     -421.73230601  energy(sigma->0) =     -421.73230601
  exchange ACFDT corr.  =         0.00000000  see jH, gK, PRB 81, 115126


--------------------------------------------------------------------------------------------------------




--------------------------------------- Iteration      1(   9)  ---------------------------------------


    POTLOK:  cpu time      0.1770: real time      0.1770
    SETDIJ:  cpu time      0.5195: real time      0.5200
    TRIAL :  cpu time     96.7684: real time     96.8339
    CORREC:  cpu time     97.7716: real time     97.8344
    CHARGE:  cpu time      0.1287: real time      0.1292
    --------------------------------------------
      LOOP:  cpu time    195.3726: real time    195.5080

 eigenvalue-minimisations  :     0
 total energy-change (2. order) :-0.6706831E+01  (-0.3004533E+01)
 number of electron     447.9999554 magnetization 
 augmentation part      154.6543389 magnetization 

 DIPCOR: dipole corrections for dipol
 direction  3 min pos     1,
 dipolmoment           0.000000      0.000000      0.125197 electrons x Angstroem
 Tr[quadrupol]     -5997.082498

 energy correction for charged system         0.000000 eV
 dipol+quadrupol energy correction           -0.000933 eV
 added-field ion interaction         -0.068390 eV  (added to PSCEN)


 Free energy of the ion-electron system (eV)
  ---------------------------------------------------
  alpha Z        PSCENC =       875.17385095
  Ewald energy   TEWEN  =    140467.92172078
  -Hartree energ DENC   =   -177914.12122299
  -exchange      EXHF   =      1281.37031982
  -V(xc)+E(xc)   XCENC  =      1432.41856399
  PAW double counting   =     35446.56833573   -39122.18691382
  entropy T*S    EENTRO =        -0.00000000
  eigenvalues    EBANDS =    -10515.13318283
  atomic energy  EATOM  =     47619.54939170
  ---------------------------------------------------
  free energy    TOTEN  =      -428.43913668 eV

  energy without entropy =     -428.43913668  energy(sigma->0) =     -428.43913668
  exchange ACFDT corr.  =         0.00000000  see jH, gK, PRB 81, 115126


--------------------------------------------------------------------------------------------------------




--------------------------------------- Iteration      1(  10)  ---------------------------------------


    POTLOK:  cpu time      0.1779: real time      0.1779
    SETDIJ:  cpu time      0.5166: real time      0.5166
    TRIAL :  cpu time     97.2320: real time     97.2942
    CORREC:  cpu time     97.6825: real time     97.7485
    CHARGE:  cpu time      0.1290: real time      0.1290
    --------------------------------------------
      LOOP:  cpu time    195.7510: real time    195.8794

 eigenvalue-minimisations  :     0
 total energy-change (2. order) :-0.3054864E+01  (-0.1060683E+01)
 number of electron     447.9999554 magnetization 
 augmentation part      154.5242230 magnetization 

 DIPCOR: dipole corrections for dipol
 direction  3 min pos     1,
 dipolmoment           0.000000      0.000000      0.136992 electrons x Angstroem
 Tr[quadrupol]     -5995.902208

 energy correction for charged system         0.000000 eV
 dipol+quadrupol energy correction           -0.001117 eV
 added-field ion interaction         -0.074833 eV  (added to PSCEN)


 Free energy of the ion-electron system (eV)
  ---------------------------------------------------
  alpha Z        PSCENC =       875.18479141
  Ewald energy   TEWEN  =    140467.92172078
  -Hartree energ DENC   =   -177686.62972263
  -exchange      EXHF   =      1278.26887627
  -V(xc)+E(xc)   XCENC  =      1429.97887912
  PAW double counting   =     35290.74245980   -38974.17519673
  entropy T*S    EENTRO =        -0.00000000
  eigenvalues    EBANDS =    -10732.33520028
  atomic energy  EATOM  =     47619.54939170
  ---------------------------------------------------
  free energy    TOTEN  =      -431.49400056 eV

  energy without entropy =     -431.49400056  energy(sigma->0) =     -431.49400056
  exchange ACFDT corr.  =        -0.00000000  see jH, gK, PRB 81, 115126


--------------------------------------------------------------------------------------------------------




--------------------------------------- Iteration      1(  11)  ---------------------------------------


    POTLOK:  cpu time      0.1802: real time      0.1808
    SETDIJ:  cpu time      0.5172: real time      0.5172
    TRIAL :  cpu time     97.3722: real time     97.4385
    CORREC:  cpu time     96.5428: real time     96.6079
    CHARGE:  cpu time      0.1296: real time      0.1296
    --------------------------------------------
      LOOP:  cpu time    194.7553: real time    194.8875

 eigenvalue-minimisations  :     0
 total energy-change (2. order) :-0.1063185E+01  (-0.4346676E+00)
 number of electron     447.9999554 magnetization 
 augmentation part      154.6513198 magnetization 

 DIPCOR: dipole corrections for dipol
 direction  3 min pos     1,
 dipolmoment           0.000000      0.000000      0.153909 electrons x Angstroem
 Tr[quadrupol]     -5996.489594

 energy correction for charged system         0.000000 eV
 dipol+quadrupol energy correction           -0.001410 eV
 added-field ion interaction         -0.084074 eV  (added to PSCEN)


 Free energy of the ion-electron system (eV)
  ---------------------------------------------------
  alpha Z        PSCENC =       875.18341070
  Ewald energy   TEWEN  =    140467.92172078
  -Hartree energ DENC   =   -177580.54327907
  -exchange      EXHF   =      1276.75915435
  -V(xc)+E(xc)   XCENC  =      1428.67537124
  PAW double counting   =     35208.56240105   -38878.75433065
  entropy T*S    EENTRO =        -0.00000000
  eigenvalues    EBANDS =    -10849.91102518
  atomic energy  EATOM  =     47619.54939170
  ---------------------------------------------------
  free energy    TOTEN  =      -432.55718509 eV

  energy without entropy =     -432.55718509  energy(sigma->0) =     -432.55718509
  exchange ACFDT corr.  =         0.00000000  see jH, gK, PRB 81, 115126


--------------------------------------------------------------------------------------------------------




--------------------------------------- Iteration      1(  12)  ---------------------------------------


    POTLOK:  cpu time      0.1832: real time      0.1837
    SETDIJ:  cpu time      0.5177: real time      0.5178
    TRIAL :  cpu time     97.2345: real time     97.3008
    CORREC:  cpu time     97.9556: real time     98.0213
    CHARGE:  cpu time      0.1290: real time      0.1295
    --------------------------------------------
      LOOP:  cpu time    196.0334: real time    196.1665

 eigenvalue-minimisations  :     0
 total energy-change (2. order) :-0.4345608E+00  (-0.1837425E+00)
 number of electron     447.9999553 magnetization 
 augmentation part      154.8604962 magnetization 

 DIPCOR: dipole corrections for dipol
 direction  3 min pos     1,
 dipolmoment           0.000000      0.000000      0.170269 electrons x Angstroem
 Tr[quadrupol]     -5997.276314

 energy correction for charged system         0.000000 eV
 dipol+quadrupol energy correction           -0.001726 eV
 added-field ion interaction         -0.093011 eV  (added to PSCEN)


 Free energy of the ion-electron system (eV)
  ---------------------------------------------------
  alpha Z        PSCENC =       875.17407734
  Ewald energy   TEWEN  =    140467.92172078
  -Hartree energ DENC   =   -177584.44868109
  -exchange      EXHF   =      1276.81807497
  -V(xc)+E(xc)   XCENC  =      1429.10284191
  PAW double counting   =     35188.38539367   -38855.96319810
  entropy T*S    EENTRO =        -0.00000000
  eigenvalues    EBANDS =    -10849.53136707
  atomic energy  EATOM  =     47619.54939170
  ---------------------------------------------------
  free energy    TOTEN  =      -432.99174590 eV

  energy without entropy =     -432.99174590  energy(sigma->0) =     -432.99174590
  exchange ACFDT corr.  =        -0.00000000  see jH, gK, PRB 81, 115126


--------------------------------------------------------------------------------------------------------




--------------------------------------- Iteration      1(  13)  ---------------------------------------


    POTLOK:  cpu time      0.1801: real time      0.1801
    SETDIJ:  cpu time      0.5181: real time      0.5181
    TRIAL :  cpu time     97.2947: real time     97.3582
    CORREC:  cpu time     97.8933: real time     97.9580
    CHARGE:  cpu time      0.1288: real time      0.1288
    --------------------------------------------
      LOOP:  cpu time    196.0282: real time    196.1569

 eigenvalue-minimisations  :     0
 total energy-change (2. order) :-0.1837473E+00  (-0.8985258E-01)
 number of electron     447.9999553 magnetization 
 augmentation part      154.9632344 magnetization 

 DIPCOR: dipole corrections for dipol
 direction  3 min pos     1,
 dipolmoment           0.000000      0.000000      0.177100 electrons x Angstroem
 Tr[quadrupol]     -5997.847845

 energy correction for charged system         0.000000 eV
 dipol+quadrupol energy correction           -0.001867 eV
 added-field ion interaction         -0.096742 eV  (added to PSCEN)


 Free energy of the ion-electron system (eV)
  ---------------------------------------------------
  alpha Z        PSCENC =       875.16451604
  Ewald energy   TEWEN  =    140467.92172078
  -Hartree energ DENC   =   -177627.91882755
  -exchange      EXHF   =      1277.40044493
  -V(xc)+E(xc)   XCENC  =      1430.03066379
  PAW double counting   =     35197.58036700   -38870.26706699
  entropy T*S    EENTRO =        -0.00000000
  eigenvalues    EBANDS =    -10802.63670289
  atomic energy  EATOM  =     47619.54939170
  ---------------------------------------------------
  free energy    TOTEN  =      -433.17549320 eV

  energy without entropy =     -433.17549320  energy(sigma->0) =     -433.17549320
  exchange ACFDT corr.  =        -0.00000000  see jH, gK, PRB 81, 115126


--------------------------------------------------------------------------------------------------------




--------------------------------------- Iteration      1(  14)  ---------------------------------------


    POTLOK:  cpu time      0.1779: real time      0.1780
    SETDIJ:  cpu time      0.5171: real time      0.5171
    TRIAL :  cpu time     97.6669: real time     97.7349
    CORREC:  cpu time     96.7196: real time     96.7839
    CHARGE:  cpu time      0.1288: real time      0.1288
    --------------------------------------------
      LOOP:  cpu time    195.2234: real time    195.3560

 eigenvalue-minimisations  :     0
 total energy-change (2. order) :-0.8990343E-01  (-0.4957842E-01)
 number of electron     447.9999553 magnetization 
 augmentation part      154.9423127 magnetization 

 DIPCOR: dipole corrections for dipol
 direction  3 min pos     1,
 dipolmoment           0.000000      0.000000      0.178092 electrons x Angstroem
 Tr[quadrupol]     -5998.210248

 energy correction for charged system         0.000000 eV
 dipol+quadrupol energy correction           -0.001888 eV
 added-field ion interaction         -0.097284 eV  (added to PSCEN)


 Free energy of the ion-electron system (eV)
  ---------------------------------------------------
  alpha Z        PSCENC =       875.16010076
  Ewald energy   TEWEN  =    140467.92172078
  -Hartree energ DENC   =   -177657.48264065
  -exchange      EXHF   =      1277.74048578
  -V(xc)+E(xc)   XCENC  =      1430.48919734
  PAW double counting   =     35210.04646519   -38885.82910328
  entropy T*S    EENTRO =        -0.00000000
  eigenvalues    EBANDS =    -10770.86101424
  atomic energy  EATOM  =     47619.54939170
  ---------------------------------------------------
  free energy    TOTEN  =      -433.26539663 eV

  energy without entropy =     -433.26539663  energy(sigma->0) =     -433.26539663
  exchange ACFDT corr.  =        -0.00000000  see jH, gK, PRB 81, 115126


--------------------------------------------------------------------------------------------------------




--------------------------------------- Iteration      1(  15)  ---------------------------------------


    POTLOK:  cpu time      0.1822: real time      0.1822
    SETDIJ:  cpu time      0.5169: real time      0.5173
    TRIAL :  cpu time     97.3819: real time     97.4465
    CORREC:  cpu time     96.3094: real time     96.3797
    CHARGE:  cpu time      0.1286: real time      0.1286
    --------------------------------------------
      LOOP:  cpu time    194.5323: real time    194.6679

 eigenvalue-minimisations  :     0
 total energy-change (2. order) :-0.4959079E-01  (-0.2381513E-01)
 number of electron     447.9999553 magnetization 
 augmentation part      154.8994574 magnetization 

 DIPCOR: dipole corrections for dipol
 direction  3 min pos     1,
 dipolmoment           0.000000      0.000000      0.178517 electrons x Angstroem
 Tr[quadrupol]     -5998.401101

 energy correction for charged system         0.000000 eV
 dipol+quadrupol energy correction           -0.001897 eV
 added-field ion interaction         -0.097517 eV  (added to PSCEN)


 Free energy of the ion-electron system (eV)
  ---------------------------------------------------
  alpha Z        PSCENC =       875.16013761
  Ewald energy   TEWEN  =    140467.92172078
  -Hartree energ DENC   =   -177665.57360755
  -exchange      EXHF   =      1277.76898378
  -V(xc)+E(xc)   XCENC  =      1430.43212950
  PAW double counting   =     35216.17586168   -38890.87128761
  entropy T*S    EENTRO =        -0.00000000
  eigenvalues    EBANDS =    -10763.87831731
  atomic energy  EATOM  =     47619.54939170
  ---------------------------------------------------
  free energy    TOTEN  =      -433.31498742 eV

  energy without entropy =     -433.31498742  energy(sigma->0) =     -433.31498742
  exchange ACFDT corr.  =         0.00000000  see jH, gK, PRB 81, 115126


--------------------------------------------------------------------------------------------------------




--------------------------------------- Iteration      1(  16)  ---------------------------------------


    POTLOK:  cpu time      0.1792: real time      0.1792
    SETDIJ:  cpu time      0.5167: real time      0.5167
    TRIAL :  cpu time     97.0292: real time     97.0934
    CORREC:  cpu time     96.6567: real time     96.7176
    CHARGE:  cpu time      0.1286: real time      0.1286
    --------------------------------------------
      LOOP:  cpu time    194.5236: real time    194.6491

 eigenvalue-minimisations  :     0
 total energy-change (2. order) :-0.2382508E-01  (-0.1180146E-01)
 number of electron     447.9999553 magnetization 
 augmentation part      154.8876039 magnetization 

 DIPCOR: dipole corrections for dipol
 direction  3 min pos     1,
 dipolmoment           0.000000      0.000000      0.180947 electrons x Angstroem
 Tr[quadrupol]     -5998.548982

 energy correction for charged system         0.000000 eV
 dipol+quadrupol energy correction           -0.001949 eV
 added-field ion interaction         -0.098844 eV  (added to PSCEN)


 Free energy of the ion-electron system (eV)
  ---------------------------------------------------
  alpha Z        PSCENC =       875.15985679
  Ewald energy   TEWEN  =    140467.92172078
  -Hartree energ DENC   =   -177668.68213311
  -exchange      EXHF   =      1277.80528748
  -V(xc)+E(xc)   XCENC  =      1430.35734502
  PAW double counting   =     35220.09589762   -38893.16970491
  entropy T*S    EENTRO =        -0.00000000
  eigenvalues    EBANDS =    -10762.37647386
  atomic energy  EATOM  =     47619.54939170
  ---------------------------------------------------
  free energy    TOTEN  =      -433.33881250 eV

  energy without entropy =     -433.33881250  energy(sigma->0) =     -433.33881250
  exchange ACFDT corr.  =         0.00000000  see jH, gK, PRB 81, 115126


--------------------------------------------------------------------------------------------------------




--------------------------------------- Iteration      1(  17)  ---------------------------------------


    POTLOK:  cpu time      0.1779: real time      0.1785
    SETDIJ:  cpu time      0.5165: real time      0.5165
    TRIAL :  cpu time     96.7840: real time     96.8513
    CORREC:  cpu time     98.3962: real time     98.4598
    CHARGE:  cpu time      0.1288: real time      0.1292
    --------------------------------------------
      LOOP:  cpu time    196.0168: real time    196.1489

 eigenvalue-minimisations  :     0
 total energy-change (2. order) :-0.1179701E-01  (-0.5089562E-02)
 number of electron     447.9999553 magnetization 
 augmentation part      154.8920614 magnetization 

 DIPCOR: dipole corrections for dipol
 direction  3 min pos     1,
 dipolmoment           0.000000      0.000000      0.182645 electrons x Angstroem
 Tr[quadrupol]     -5998.646867

 energy correction for charged system         0.000000 eV
 dipol+quadrupol energy correction           -0.001986 eV
 added-field ion interaction         -0.099771 eV  (added to PSCEN)


 Free energy of the ion-electron system (eV)
  ---------------------------------------------------
  alpha Z        PSCENC =       875.15838304
  Ewald energy   TEWEN  =    140467.92172078
  -Hartree energ DENC   =   -177674.53629854
  -exchange      EXHF   =      1277.94142174
  -V(xc)+E(xc)   XCENC  =      1430.44048449
  PAW double counting   =     35225.05401431   -38897.94897681
  entropy T*S    EENTRO =        -0.00000000
  eigenvalues    EBANDS =    -10756.93075022
  atomic energy  EATOM  =     47619.54939170
  ---------------------------------------------------
  free energy    TOTEN  =      -433.35060952 eV

  energy without entropy =     -433.35060952  energy(sigma->0) =     -433.35060952
  exchange ACFDT corr.  =         0.00000000  see jH, gK, PRB 81, 115126


--------------------------------------------------------------------------------------------------------




--------------------------------------- Iteration      1(  18)  ---------------------------------------


    POTLOK:  cpu time      0.1832: real time      0.1833
    SETDIJ:  cpu time      0.5166: real time      0.5166
[...]
    317      11.5174      0.00000
    318      11.5284      0.00000
    319      11.5301      0.00000
    320      11.5362      0.00000


--------------------------------------------------------------------------------------------------------


 soft charge-density along one line, spin component           1
         0         1         2         3         4         5         6         7         8         9
 total charge-density along one line

 pseudopotential strength for first ion, spin component:           1
-49.992  -0.000  -0.000   5.944   0.000   0.000  -0.000   0.000
 -0.000 -50.046   0.000   0.000   5.968  -0.000  -0.031   0.080
 -0.000   0.000 -49.992   0.000  -0.000   5.944  -0.000   0.000
  5.944   0.000   0.000   4.676   0.000  -0.000  -0.000   0.000
  0.000   5.968  -0.000   0.000   4.678   0.000  -0.002   0.005
  0.000  -0.000   5.944  -0.000   0.000   4.676   0.000  -0.000
 -0.000  -0.031  -0.000  -0.000  -0.002   0.000   2.917 -10.653
  0.000   0.080   0.000   0.000   0.005  -0.000 -10.653  44.237
  0.000  -0.000   0.000   0.000  -0.000  -0.000   0.000  -0.000
  0.010   0.000  -0.000  -0.006  -0.000  -0.000   0.000  -0.000
 -0.000   0.011   0.000   0.000  -0.013  -0.000   0.007  -0.016
 -0.000   0.000   0.010  -0.000   0.000  -0.006   0.000  -0.000
 -0.000  -0.000  -0.000   0.000   0.000   0.000   0.000  -0.000
 total augmentation occupancy for first ion, spin component:           1
  2.002   0.000   0.000  -0.008   0.000   0.000   0.000   0.000   0.000  -0.008   0.000   0.000   0.000
  0.000   2.003  -0.000   0.000  -0.001  -0.000   0.001   0.004   0.000  -0.000  -0.014   0.000   0.000
  0.000  -0.000   2.002   0.000   0.000  -0.008   0.000   0.000  -0.000  -0.000   0.000  -0.008   0.000
 -0.008   0.000   0.000   0.075  -0.000   0.000   0.000   0.000  -0.000   0.001   0.000   0.000  -0.000
  0.000  -0.001   0.000  -0.000   0.045  -0.000   0.039   0.001   0.000   0.000   0.026  -0.000   0.000
  0.000  -0.000  -0.008   0.000  -0.000   0.075   0.000   0.000  -0.000  -0.000   0.000   0.001   0.000
  0.000   0.001   0.000   0.000   0.039   0.000   0.802   0.017   0.000  -0.000  -0.040   0.000  -0.000
  0.000   0.004   0.000   0.000   0.001   0.000   0.017   0.000   0.000   0.000  -0.001   0.000   0.000
  0.000   0.000  -0.000  -0.000   0.000  -0.000   0.000   0.000   0.012   0.000   0.000  -0.000   0.000
 -0.008  -0.000  -0.000   0.001   0.000  -0.000  -0.000   0.000   0.000   0.010   0.000   0.000  -0.000
  0.000  -0.014   0.000   0.000   0.026   0.000  -0.040  -0.001   0.000   0.000   0.032   0.000   0.000
  0.000   0.000  -0.008   0.000  -0.000   0.001   0.000   0.000  -0.000   0.000   0.000   0.010   0.000
  0.000   0.000   0.000  -0.000   0.000   0.000  -0.000   0.000   0.000  -0.000   0.000   0.000   0.053


------------------------ aborting loop because EDIFF is reached ----------------------------------------


    FORLOC:  cpu time      0.0061: real time      0.0061
    FORHF :  cpu time     98.8886: real time     98.9457
    FORNL :  cpu time      0.3273: real time      0.3273
    STRESS:  cpu time      1.0132: real time      1.0137
    FORCOR:  cpu time      0.1437: real time      0.1437
    OFIELD:  cpu time      0.0008: real time      0.0010

  DFT-D2 method for vdW energy calculation
  -------------------------------------------------------------------

  Parameters of vdW forcefield:
         C6(Jnm^6/mol)     R0(A)
   -----------------------------
   Mg       0.630          1.243
   O        0.700          1.342

  vdW correction parametrized for the method   h      

  IVDW =   1
  VDW_RADIUS =    50.000 A
  VDW_S6 =     1.050
  VDW_SR =     1.000
  VDW_D =    20.000
  LVDW_EWALD = F

  Number of pair interactions contributing to vdW energy:  723312
  Edisp (eV):   -5.06777
    FORVDW:  cpu time      0.1934: real time      0.1937

  FORCE on cell =-STRESS in cart. coord.  units (eV):
  Direction    XX          YY          ZZ          XY          YZ          ZX
  --------------------------------------------------------------------------------------
  Alpha Z   875.25928   875.25928   875.25928
  Ewald  161112.87060161112.87060************     0.00000     0.00000    -0.00000
  Hartree171224.05582171224.05582************    -0.00000    -0.00000    -0.00000
  E(xc)   -2000.38253 -2000.38253 -2003.72619    -0.00000    -0.00000    -0.00000
  Local  ************************342584.19927    -0.00000     0.00000     0.00000
  n-local -1170.58671 -1171.07377 -1193.79222     0.00001     0.00001     0.00000
  augment   897.11083   897.11083   886.70904     0.00000    -0.00000     0.00000
  Kinetic  7330.38066  7332.26403  7369.74905     0.00000    -0.00002    -0.00001
  Fock    -1996.00356 -1996.09038 -1992.74598    -0.00000     0.00000    -0.00000
  vdW        -7.40423    -7.40423    -6.01513    -0.00000     0.00000     0.00000
  -------------------------------------------------------------------------------------
  Total     -39.24374   -39.24374    -9.98553     0.00000    -0.00000     0.00000
  in kB     -41.37032   -41.37032   -10.52664     0.00000    -0.00000     0.00000
  external pressure =      -31.09 kB  Pullay stress =        0.00 kB


 VOLUME and BASIS-vectors are now :
 -----------------------------------------------------------------------------
  energy-cutoff  :      600.00
  volume of cell :     1519.82
      direct lattice vectors                 reciprocal lattice vectors
     8.440984654  0.000000000  0.000000000     0.118469591  0.000000000  0.000000000
     0.000000000  8.440984654  0.000000000     0.000000000  0.118469591  0.000000000
     0.000000000  0.000000000 21.330738491     0.000000000  0.000000000  0.046880702

  length of vectors
     8.440984654  8.440984654 21.330738491     0.118469591  0.118469591  0.046880702


 FORCES acting on ions:
    Electron-Ion                     Ewald-Force                    Non-Local-Force
 -----------------------------------------------------------------------------------------------
   -.175E-13 0.760E-01 0.207E+04   0.560E-13 -.754E-01 -.206E+04   -.397E-22 -.385E-03 -.639E+01
   -.760E-01 -.418E-12 0.207E+04   0.754E-01 0.671E-13 -.206E+04   0.385E-03 -.662E-22 -.639E+01
   -.499E-13 0.000E+00 0.684E+03   -.150E-10 0.150E-10 -.684E+03   0.000E+00 0.000E+00 0.422E+00
   -.440E+00 0.440E+00 0.683E+03   0.441E+00 -.441E+00 -.684E+03   -.458E-03 0.458E-03 0.456E+00
   -.125E-13 0.274E+00 -.690E+03   0.157E-11 -.271E+00 0.690E+03   -.132E-22 0.233E-02 -.121E+00
   -.274E+00 0.141E-12 -.690E+03   0.271E+00 -.151E-11 0.690E+03   -.233E-02 0.000E+00 -.121E+00
   -.340E-13 0.620E-12 -.205E+04   0.444E-12 -.416E-12 0.204E+04   0.000E+00 0.000E+00 0.527E+01
   -.137E+01 0.137E+01 -.205E+04   0.121E+01 -.121E+01 0.204E+04   0.126E+00 -.126E+00 0.533E+01
   -.207E-13 -.760E-01 0.207E+04   -.277E-12 0.754E-01 -.206E+04   0.000E+00 0.385E-03 -.639E+01
   -.115E+00 0.175E-12 0.207E+04   0.116E+00 0.131E-10 -.206E+04   -.877E-03 -.529E-22 -.639E+01
   -.395E-13 0.761E-12 0.683E+03   -.165E-10 0.000E+00 -.684E+03   0.000E+00 0.000E+00 0.401E+00
   -.440E+00 -.440E+00 0.683E+03   0.441E+00 0.441E+00 -.684E+03   -.458E-03 -.458E-03 0.456E+00
   -.148E-13 -.274E+00 -.690E+03   0.304E-11 0.271E+00 0.690E+03   0.000E+00 -.233E-02 -.121E+00
   -.164E+01 0.943E-12 -.691E+03   0.172E+01 0.178E-14 0.692E+03   -.775E-01 0.000E+00 -.184E+00
   -.209E-13 0.125E-11 -.205E+04   -.355E-13 -.995E-13 0.204E+04   0.000E+00 0.000E+00 0.524E+01
   -.137E+01 -.137E+01 -.205E+04   0.121E+01 0.121E+01 0.204E+04   0.126E+00 0.126E+00 0.533E+01
   0.688E-12 0.115E+00 0.207E+04   -.129E-10 -.116E+00 -.206E+04   0.106E-21 0.877E-03 -.639E+01
   0.760E-01 -.444E-12 0.207E+04   -.754E-01 0.471E-13 -.206E+04   -.385E-03 0.000E+00 -.639E+01
   0.600E-12 0.202E-13 0.683E+03   0.145E-11 0.150E-10 -.684E+03   0.000E+00 -.199E-22 0.401E+00
   0.440E+00 0.440E+00 0.683E+03   -.441E+00 -.441E+00 -.684E+03   0.458E-03 0.458E-03 0.456E+00
   0.601E-12 0.164E+01 -.691E+03   -.141E-11 -.172E+01 0.692E+03   0.397E-22 0.775E-01 -.184E+00
   0.274E+00 0.162E-12 -.690E+03   -.271E+00 -.156E-11 0.690E+03   0.233E-02 0.000E+00 -.121E+00
   0.690E-12 -.458E-12 -.205E+04   0.782E-13 -.355E-14 0.204E+04   0.000E+00 0.265E-22 0.524E+01
   0.137E+01 0.137E+01 -.205E+04   -.121E+01 -.121E+01 0.204E+04   -.126E+00 -.126E+00 0.533E+01
   0.689E-12 -.115E+00 0.207E+04   -.131E-10 0.116E+00 -.206E+04   0.265E-22 -.877E-03 -.639E+01
   0.115E+00 -.199E-11 0.207E+04   -.116E+00 0.131E-10 -.206E+04   0.877E-03 0.529E-22 -.639E+01
   0.595E-12 0.842E-12 0.681E+03   -.782E-13 0.355E-14 -.682E+03   0.000E+00 0.000E+00 0.549E+00
   0.440E+00 -.440E+00 0.683E+03   -.441E+00 0.441E+00 -.684E+03   0.458E-03 -.458E-03 0.456E+00
   0.607E-12 -.164E+01 -.691E+03   -.284E-13 0.172E+01 0.692E+03   0.000E+00 -.775E-01 -.184E+00
   0.164E+01 -.808E-12 -.691E+03   -.172E+01 0.000E+00 0.692E+03   0.775E-01 -.106E-21 -.184E+00
   0.679E-12 0.835E-12 -.207E+04   -.426E-13 -.391E-13 0.206E+04   0.000E+00 0.000E+00 0.566E+01
   0.137E+01 -.137E+01 -.205E+04   -.121E+01 0.121E+01 0.204E+04   -.126E+00 0.126E+00 0.533E+01
   -.174E-13 0.175E+00 0.512E+03   0.409E-13 -.177E+00 -.512E+03   0.000E+00 0.181E-02 -.982E-01
   -.175E+00 0.175E-12 0.512E+03   0.177E+00 0.391E-13 -.512E+03   -.181E-02 -.662E-23 -.982E-01
   -.238E-13 0.512E-12 0.155E+04   0.853E-11 -.844E-11 -.156E+04   0.000E+00 0.132E-22 0.312E+01
   -.725E-01 0.725E-01 0.155E+04   0.725E-01 -.725E-01 -.156E+04   0.787E-04 -.787E-04 0.313E+01
   -.384E-13 0.423E+00 -.156E+04   -.871E-12 -.450E+00 0.156E+04   0.000E+00 0.135E-01 -.468E+01
   -.423E+00 -.215E-12 -.156E+04   0.450E+00 0.881E-12 0.156E+04   -.135E-01 0.000E+00 -.468E+01
   -.207E-13 0.943E-13 -.512E+03   -.853E-13 0.639E-13 0.511E+03   0.662E-23 0.000E+00 0.223E+00
   -.697E+00 0.697E+00 -.512E+03   0.687E+00 -.687E+00 0.511E+03   0.164E-01 -.164E-01 0.316E+00
   -.240E-13 -.175E+00 0.512E+03   0.142E-13 0.177E+00 -.512E+03   0.000E+00 -.181E-02 -.982E-01
   -.416E+00 0.539E-12 0.511E+03   0.385E+00 -.764E-11 -.511E+03   0.382E-01 -.529E-22 -.109E+00
   -.252E-13 0.104E-11 0.155E+04   0.845E-11 -.796E-12 -.156E+04   0.000E+00 0.000E+00 0.313E+01
   -.725E-01 -.725E-01 0.155E+04   0.725E-01 0.725E-01 -.156E+04   0.787E-04 0.787E-04 0.313E+01
   -.538E-13 -.423E+00 -.156E+04   -.774E-12 0.450E+00 0.156E+04   0.000E+00 -.135E-01 -.468E+01
   -.309E+01 0.458E-12 -.156E+04   0.301E+01 0.810E-11 0.156E+04   0.186E+00 0.397E-22 -.439E+01
   -.334E-13 0.202E-12 -.511E+03   -.741E-11 0.711E-14 0.510E+03   0.000E+00 0.265E-22 0.297E+00
   -.697E+00 -.697E+00 -.512E+03   0.687E+00 0.687E+00 0.511E+03   0.164E-01 0.164E-01 0.316E+00
   0.272E-12 0.416E+00 0.511E+03   0.764E-11 -.385E+00 -.511E+03   -.397E-22 -.382E-01 -.109E+00
   0.175E+00 0.182E-12 0.512E+03   -.177E+00 0.142E-13 -.512E+03   0.181E-02 -.662E-23 -.982E-01
   0.341E-12 0.620E-12 0.155E+04   0.845E-12 -.846E-11 -.156E+04   0.106E-21 0.000E+00 0.313E+01
   0.725E-01 0.725E-01 0.155E+04   -.725E-01 -.725E-01 -.156E+04   -.787E-04 -.787E-04 0.313E+01
   0.314E-12 0.309E+01 -.156E+04   -.816E-11 -.301E+01 0.156E+04   0.000E+00 -.186E+00 -.439E+01
   0.423E+00 -.121E-12 -.156E+04   -.450E+00 0.924E-12 0.156E+04   0.135E-01 0.000E+00 -.468E+01
   0.278E-12 -.498E-12 -.511E+03   -.711E-14 0.738E-11 0.510E+03   0.000E+00 -.496E-23 0.297E+00
   0.697E+00 0.697E+00 -.512E+03   -.687E+00 -.687E+00 0.511E+03   -.164E-01 -.164E-01 0.316E+00
   0.287E-12 -.416E+00 0.511E+03   0.763E-11 0.385E+00 -.511E+03   0.000E+00 0.382E-01 -.109E+00
   0.416E+00 -.162E-11 0.511E+03   -.385E+00 -.769E-11 -.511E+03   -.382E-01 0.000E+00 -.109E+00
   0.337E-12 0.956E-12 0.155E+04   0.824E-12 -.838E-12 -.156E+04   0.232E-22 0.000E+00 0.313E+01
   0.725E-01 -.725E-01 0.155E+04   -.725E-01 0.725E-01 -.156E+04   -.787E-04 0.787E-04 0.313E+01
   0.332E-12 -.309E+01 -.156E+04   -.820E-11 0.301E+01 0.156E+04   -.529E-22 0.186E+00 -.439E+01
   0.309E+01 0.176E-11 -.156E+04   -.301E+01 0.819E-11 0.156E+04   -.186E+00 0.662E-23 -.439E+01
   0.279E-12 0.539E-13 -.520E+03   -.497E-13 0.426E-13 0.520E+03   -.265E-22 0.000E+00 -.978E-01
   0.697E+00 -.697E+00 -.512E+03   -.687E+00 0.687E+00 0.511E+03   -.164E-01 0.164E-01 0.316E+00
 -----------------------------------------------------------------------------------------------
   0.207E-10 0.226E-10 0.184E+02   0.121E-12 -.744E-13 0.296E-11   -.278E-16 -.555E-16 -.162E+02


 POSITION                                       TOTAL-FORCE (eV/Angst)
 -----------------------------------------------------------------------------------
      0.00000      6.33074      7.50000         0.000000      0.000176      0.463768
      2.11025      0.00000      7.50000        -0.000176      0.000000      0.463768
      0.00000      0.00000      9.61025         0.000000      0.000000      0.043821
      2.11025      6.33074      9.61025         0.000496     -0.000496      0.042451
      0.00000      6.33023     11.73368         0.000000      0.005480      0.027990
      2.11076      0.00000     11.73368        -0.005480      0.000000      0.027990
      0.00000      0.00000     13.83822         0.000000      0.000000     -0.059375
      2.10905      6.33193     13.83447        -0.026687      0.026687     -0.049807
      0.00000      2.11025      7.50000         0.000000     -0.000176      0.463768
      2.11025      4.22049      7.50000         0.000151      0.000000      0.463455
      0.00000      4.22049      9.61025         0.000000      0.000000      0.049337
      2.11025      2.11025      9.61025         0.000496      0.000496      0.042451
      0.00000      2.11076     11.73368         0.000000     -0.005480      0.027990
      2.11344      4.22049     11.73659        -0.006907      0.000000      0.019739
      0.00000      4.22049     13.83544         0.000000      0.000000     -0.044419
      2.10905      2.10905     13.83447        -0.026687     -0.026687     -0.049807
      4.22049      6.33074      7.50000         0.000000     -0.000151      0.463455
      6.33074      0.00000      7.50000         0.000176      0.000000      0.463768
      4.22049      0.00000      9.61025         0.000000      0.000000      0.049337
      6.33074      6.33074      9.61025        -0.000496     -0.000496      0.042451
      4.22049      6.32754     11.73659         0.000000      0.006907      0.019739
      6.33023      0.00000     11.73368         0.005480      0.000000      0.027990
      4.22049      0.00000     13.83544         0.000000      0.000000     -0.044419
      6.33193      6.33193     13.83447         0.026687      0.026687     -0.049807
      4.22049      2.11025      7.50000         0.000000      0.000151      0.463455
      6.33074      4.22049      7.50000        -0.000151      0.000000      0.463455
      4.22049      4.22049      9.61025         0.000000      0.000000      0.047926
      6.33074      2.11025      9.61025        -0.000496      0.000496      0.042451
      4.22049      2.11344     11.73659         0.000000     -0.006907      0.019739
      6.32754      4.22049     11.73659         0.006907      0.000000      0.019739
      4.22049      4.22049     13.87814         0.000000      0.000000     -0.349467
      6.33193      2.10905     13.83447         0.026687     -0.026687     -0.049807
      0.00000      6.33074      9.61025         0.000000      0.000835      0.056081
      2.11025      0.00000      9.61025        -0.000835      0.000000      0.056081
      0.00000      0.00000      7.50000         0.000000      0.000000     -0.434098
      2.11025      6.33074      7.50000         0.000011     -0.000011     -0.433548
      0.00000      6.33258     13.88587         0.000000     -0.012028     -0.143081
      2.10840      0.00000     13.88587         0.012028      0.000000     -0.143081
      0.00000      0.00000     11.72785         0.000000      0.000000      0.022042
      2.10979      6.33120     11.72890         0.008391     -0.008391      0.023441
      0.00000      2.11025      9.61025         0.000000     -0.000835      0.056081
      2.11025      4.22049      9.61025         0.012103      0.000000      0.067040
      0.00000      4.22049      7.50000         0.000000      0.000000     -0.433728
      2.11025      2.11025      7.50000         0.000011      0.000011     -0.433548
      0.00000      2.10840     13.88587         0.000000      0.012028     -0.143081
      2.10031      4.22049     13.88381         0.143634      0.000000     -0.057338
      0.00000      4.22049     11.72684         0.000000      0.000000      0.036952
      2.10979      2.10979     11.72890         0.008391      0.008391      0.023441
      4.22049      6.33074      9.61025         0.000000     -0.012103      0.067040
      6.33074      0.00000      9.61025         0.000835      0.000000      0.056081
      4.22049      0.00000      7.50000         0.000000      0.000000     -0.433728
      6.33074      6.33074      7.50000        -0.000011     -0.000011     -0.433548
      4.22049      6.34068     13.88381         0.000000     -0.143634     -0.057338
      6.33258      0.00000     13.88587        -0.012028      0.000000     -0.143081
      4.22049      0.00000     11.72684         0.000000      0.000000      0.036952
      6.33120      6.33120     11.72890        -0.008391     -0.008391      0.023441
      4.22049      2.11025      9.61025         0.000000      0.012103      0.067040
      6.33074      4.22049      9.61025        -0.012103      0.000000      0.067040
      4.22049      4.22049      7.50000         0.000000      0.000000     -0.433831
      6.33074      2.11025      7.50000        -0.000011      0.000011     -0.433548
      4.22049      2.10031     13.88381         0.000000      0.143634     -0.057338
      6.34068      4.22049     13.88381        -0.143634      0.000000     -0.057338
      4.22049      4.22049     11.73684         0.000000      0.000000      0.025936
      6.33120      2.10979     11.72890        -0.008391      0.008391      0.023441
 -----------------------------------------------------------------------------------
    total drift:                                0.000000      0.000000      0.008995


--------------------------------------------------------------------------------------------------------



  FREE ENERGIE OF THE ION-ELECTRON SYSTEM (eV)
  ---------------------------------------------------
  free  energy   TOTEN  =      -438.42721618 eV

  energy  without entropy=     -438.42721618  energy(sigma->0) =     -438.42721618



--------------------------------------------------------------------------------------------------------


    POTLOK:  cpu time      0.6839: real time      0.7376


--------------------------------------------------------------------------------------------------------


     LOOP+:  cpu time   4439.5177: real time   4443.0711
    4ORBIT:  cpu time      0.0000: real time      0.0000

 total amount of memory used by VASP MPI-rank0   187833. kBytes
=======================================================================

   base      :      30000. kBytes
   nonl-proj :      10652. kBytes
   fftplans  :       7742. kBytes
   grid      :       7379. kBytes
   one-center:         64. kBytes
   HF        :         67. kBytes
   nonlr-proj:      14592. kBytes
   wavefun   :       4746. kBytes
   fock_wrk  :     112591. kBytes

  
  
 General timing and accounting informations for this job:
 ========================================================
  
                  Total CPU time used (sec):     4475.470
                            User time (sec):     4462.174
                          System time (sec):       13.295
                         Elapsed time (sec):     4491.915
  
                   Maximum memory used (kb):      472024.
                   Average memory used (kb):          N/A
  
                          Minor page faults:       266648
                          Major page faults:         1214
                 Voluntary context switches:        12491
