
                                 *****************
                                 * O   R   C   A *
                                 *****************

                                            #,
                                            ###
                                            ####
                                            #####
                                            ######
                                           ########,
                                     ,,################,,,,,
                               ,,#################################,,
                          ,,##########################################,,
                       ,#########################################, ''#####,
                    ,#############################################,,   '####,
                  ,##################################################,,,,####,
                ,###########''''           ''''###############################
              ,#####''   ,,,,##########,,,,          '''####'''          '####
            ,##' ,,,,###########################,,,                        '##
           ' ,,###''''                  '''############,,,
         ,,##''                                '''############,,,,        ,,,,,,###''
      ,#''                                            '''#######################'''
     '                                                          ''''####''''
             ,#######,   #######,   ,#######,      ##
            ,#'     '#,  ##    ##  ,#'     '#,    #''#        ,####,   ,####,
            ##       ##  ##   ,#'  ##            #'  '#       #'       #'  '#
            ##       ##  #######   ##           ,######,      #####,   #    #
            '#,     ,#'  ##    ##  '#,     ,#' ,#      #,     #,   #   #,  ,#
             '#######'   ##     ##  '#######'  #'      '#     '####' # '####'



                #########################################################
                #                        -***-                          #
                #          Department of theory and spectroscopy        #
                #                                                       #
                #                      Frank Neese                      #
                #                                                       #
                #     Directorship, Architecture, Infrastructure        #
                #                    SHARK, DRIVERS                     #
                #        Core code/Algorithms in most modules           #
                #                                                       #
                #        Max Planck Institute fuer Kohlenforschung      #
                #                Kaiser Wilhelm Platz 1                 #
                #                 D-45470 Muelheim/Ruhr                 #
                #                      Germany                          #
                #                                                       #
                #                  All rights reserved                  #
                #                        -***-                          #
                #########################################################


                         Program Version 6.0.0  -   RELEASE  -


 With contributions from (in alphabetic order):
   Daniel Aravena         : Magnetic Suceptibility
   Michael Atanasov       : Ab Initio Ligand Field Theory (pilot matlab implementation)
   Alexander A. Auer      : GIAO ZORA, VPT2 properties, NMR spectrum
   Ute Becker             : All parallelization in ORCA, NUMFREQ, NUMCALC
   Giovanni Bistoni       : ED, misc. LED, open-shell LED, HFLD
   Martin Brehm           : Molecular dynamics
   Dmytro Bykov           : pre 5.0 version of the SCF Hessian
   Marcos Casanova-Páez   : Triplet and SCS-CIS(D). UHF-(DLPNO)-IP/EA/STEOM-CCSD. UHF-CVS-IP/STEOM-CCSD
   Vijay G. Chilkuri      : MRCI spin determinant printing, contributions to CSF-ICE
   Pauline Colinet        : FMM embedding
   Dipayan Datta          : RHF DLPNO-CCSD density
   Achintya Kumar Dutta   : EOM-CC, STEOM-CC
   Nicolas Foglia         : Exact transition moments, OPA infrastructure, MCD improvements
   Dmitry Ganyushin       : Spin-Orbit,Spin-Spin,Magnetic field MRCI
   Miquel Garcia          : C-PCM and meta-GGA Hessian, CCSD/C-PCM, Gaussian charge scheme
   Tiago L. C. Gouveia    : GS-ROHF, GS-ROCIS
   Yang Guo               : DLPNO-NEVPT2, F12-NEVPT2, CIM, IAO-localization
   Andreas Hansen         : Spin unrestricted coupled pair/coupled cluster methods
   Ingolf Harden          : AUTO-CI MPn and infrastructure
   Benjamin Helmich-Paris : MC-RPA, TRAH-(SCF,CASSCF), AVAS, COSX integrals, SCF dyn. polar.
   Lee Huntington         : MR-EOM, pCC
   Robert Izsak           : Overlap fitted RIJCOSX, COSX-SCS-MP3, EOM
   Riya Kayal             : Wick's Theorem for AUTO-CI, AUTO-CI UHF-CCSDT
   Emily Kempfer          : AUTO-CI, RHF CISDT and CCSDT
   Christian Kollmar      : KDIIS, OOCD, Brueckner-CCSD(T), CCSD density, CASPT2, CASPT2-K, improved NEVPT2
   Axel Koslowski         : Symmetry handling
   Simone Kossmann        : Meta GGA functionals, TD-DFT gradient, OOMP2, (MP2 Hessian; deprecated post 5.0)
   Lucas Lang             : DCDCAS
   Marvin Lechner         : AUTO-CI (C++ implementation), FIC-MRCC
   Spencer Leger          : CASSCF response
   Dagmar Lenk            : GEPOL surface, SMD, ORCA-2-JSON
   Dimitrios Liakos       : Extrapolation schemes; Compound Job, initial MDCI parallelization
   Dimitrios Manganas     : Further ROCIS development; embedding schemes. LFT, Crystal Embedding
   Dimitrios Pantazis     : SARC Basis sets
   Anastasios Papadopoulos: AUTO-CI, single reference methods and gradients
   Taras Petrenko         : pre 6.0 DFT Hessian and TD-DFT gradient, (ASA, deprecated), ECA, 1-Electron XAS/XES, NRVS
   Peter Pinski           : DLPNO-MP2, DLPNO-MP2 Gradient
   Christoph Reimann      : Effective Core Potentials
   Marius Retegan         : Local ZFS, SOC
   Christoph Riplinger    : Optimizer, TS searches, QM/MM, DLPNO-CCSD(T), (RO)-DLPNO pert. Triples
   Michael Roemelt        : Original ROCIS implementation
   Masaaki Saitow         : Open-shell DLPNO-CCSD energy and density
   Barbara Sandhoefer     : DKH picture change effects
   Kantharuban Sivalingam : CASSCF convergence/infrastructure, NEVPT2 and variants, FIC-MRCI
   Bernardo de Souza      : ESD, SOC TD-DFT
   Georgi Stoychev        : AutoAux, RI-MP2 NMR, DLPNO-MP2 response, X2C
   Van Anh Tran           : RI-MP2 g-tensors
   Willem Van den Heuvel  : Paramagnetic NMR
   Zikuan Wang            : NOTCH, Electric field optimization
   Frank Wennmohs         : Technical directorship and infrastructure
   Hang Xu                : AUTO-CI-Response properties


 We gratefully acknowledge several colleagues who have allowed us to
 interface, adapt or use parts of their codes:
   Stefan Grimme, W. Hujo, H. Kruse, P. Pracht,  : VdW corrections, initial TS optimization,
                  C. Bannwarth, S. Ehlert,         DFT functionals, gCP, sTDA/sTD-DF
                  L. Wittmann, M. Mueller
   Ed Valeev, F. Pavosevic, A. Kumar             : LibInt (2-el integral package), F12 methods
   Garnet Chan, S. Sharma, J. Yang, R. Olivares  : DMRG
   Ulf Ekstrom                                   : XCFun DFT Library
   Mihaly Kallay                                 : mrcc  (arbitrary order and MRCC methods)
   Frank Weinhold                                : gennbo (NPA and NBO analysis)
   Simon Mueller                                 : openCOSMO-RS
   Christopher J. Cramer and Donald G. Truhlar   : smd solvation model
   Lars Goerigk                                  : TD-DFT with DH, B97 family of functionals
   V. Asgeirsson, H. Jonsson                     : NEB implementation
   FAccTs GmbH                                   : IRC, NEB, NEB-TS, DLPNO-Multilevel, CI-OPT
                                                   MM, QMMM, 2- and 3-layer-ONIOM, Crystal-QMMM,
                                                   LR-CPCM, SF, NACMEs, symmetry and pop. for TD-DFT,
                                                   nearIR, NL-DFT gradient (VV10), updates on ESD,
                                                   ML-optimized integration grids, MBIS, APM,
                                                   GOAT, DOCKER, SOLVATOR, interface openCOSMO-RS
   S Lehtola, MJT Oliveira, MAL Marques          : LibXC Library
   Liviu Ungur et al                             : ANISO software


 Your calculation uses the libint2 library for the computation of 2-el integrals
 For citations please refer to: http://libint.valeyev.net

 Your ORCA version has been built with support for libXC version: 6.2.2
 For citations please refer to: https://libxc.gitlab.io

 This ORCA versions uses:
   CBLAS   interface :  Fast vector & matrix operations
   LAPACKE interface :  Fast linear algebra routines
   SCALAPACK package :  Parallel linear algebra routines
   Shared memory     :  Shared parallel matrices
   BLAS/LAPACK       :  OpenBLAS 0.3.27  USE64BITINT DYNAMIC_ARCH NO_AFFINITY Haswell SINGLE_THREADED
        Core in use  :  Haswell
   Copyright (c) 2011-2014, The OpenBLAS Project


NOTE: MaxCore=25000 MB was set to SCF,MP2,MDCI,CIPSI,MRCI and CIS
      => If you want to overwrite this, your respective input block should be placed after the MaxCore statement
Setting NCore(C ) from 2 to 2
Setting NCore(Mg) from 2 to 2
Setting NCore(O ) from 2 to 2
SCAN-COORDS
================================================================================

----- Orbital basis set information -----
Your calculation utilizes the basis: def2-SVP
   F. Weigend and R. Ahlrichs, Phys. Chem. Chem. Phys. 7, 3297 (2005).

The basis set includes element-specific modifications.

Your calculation utilizes the basis: aug-cc-pVQZ
    H, B-Ne : Obtained from the ccRepo (grant-hill.group.shef.ac.uk/ccrepo) Feb. 2017
              R. A. Kendall, T. H. Dunning, Jr., R. J. Harrison, J. Chem. Phys. 96, 6796 (1992)
         He : Obtained from the ccRepo (grant-hill.group.shef.ac.uk/ccrepo) Feb. 2017
              D. E. Woon, T. H. Dunning, Jr., J. Chem. Phys. 100, 2975 (1994)
  Li-Be, Na : Obtained from the ccRepo (grant-hill.group.shef.ac.uk/ccrepo) Feb. 2017
              B. P. Prascher, D. E. Woon, K. A. Peterson, T. H. Dunning, Jr., A. K. Wilson, Theor. Chem. Acc. 128, 69 (2011)
         Mg : Obtained from the Peterson Research Group Website (tyr0.chem.wsu.edu/~kipeters) Feb. 2017
              B. P. Prascher, D. E. Woon, K. A. Peterson, T. H. Dunning, Jr., A. K. Wilson, Theor. Chem. Acc. 128, 69 (2011)
      Al-Ar : Obtained from the ccRepo (grant-hill.group.shef.ac.uk/ccrepo) Feb. 2017
              D. E. Woon, T. H. Dunning, Jr., J. Chem. Phys. 98, 1358 (1993)
      Sc-Zn : Obtained from the ccRepo (grant-hill.group.shef.ac.uk/ccrepo) Feb. 2017
              N. B. Balabanov, K. A. Peterson, J. Chem. Phys. 123, 064107 (2005)
              N. B. Balabanov, K. A. Peterson, J. Chem. Phys. 125, 074110 (2006)
      Ga-Kr : Obtained from the ccRepo (grant-hill.group.shef.ac.uk/ccrepo) Feb. 2017
              A. K. Wilson, D. E. Woon, K. A. Peterson, T. H. Dunning, Jr., J. Chem. Phys. 110, 7667 (1999)

Your calculation utilizes the basis: cc-pwCVQZ
             H : cc-pVQZ. Obtained from the ccRepo (grant-hill.group.shef.ac.uk/ccrepo) Feb. 2017
                 T. H. Dunning, Jr., J. Chem. Phys. 90, 1007 (1989)
            He : cc-pVQZ. Obtained from the ccRepo (grant-hill.group.shef.ac.uk/ccrepo) Feb. 2017
                 D. E. Woon, T. H. Dunning, Jr., J. Chem. Phys. 100, 2975 (1994)
  Li-Be, Na-Mg : Obtained from the ccRepo (grant-hill.group.shef.ac.uk/ccrepo) Feb. 2017
                 B. P. Prascher, D. E. Woon, K. A. Peterson, T. H. Dunning, Jr., A. K. Wilson, Theor. Chem. Acc. 128, 69 (2011)
          B-Ne : Obtained from the ccRepo (grant-hill.group.shef.ac.uk/ccrepo) Feb. 2017
                 K. A. Peterson, T. H. Dunning, Jr., J. Chem. Phys. 117, 10548 (2002)
         Al-Ar : Obtained from the EMSL Basis Set Exchange (bse.pnl.gov) Feb. 2017
                 K. A. Peterson, T. H. Dunning, Jr., J. Chem. Phys. 117, 10548 (2002)
            Ca : Obtained from the Peterson Research Group Website (tyr0.chem.wsu.edu/~kipeters) Feb. 2017
                 J. Koput, K. A. Peterson, J. Phys. Chem. 106, 9595 (2002)
         Sc-Zn : Obtained from the ccRepo (grant-hill.group.shef.ac.uk/ccrepo) Feb. 2017
                 N. B. Balabanov, K. A. Peterson, J. Chem. Phys. 123, 064107 (2005)
                 N. B. Balabanov, K. A. Peterson, J. Chem. Phys. 125, 074110 (2006)
         Ga-Kr : Obtained from the Peterson Research Group Website (tyr0.chem.wsu.edu/~kipeters) Feb. 2017
                 K. A. Peterson, K. E. Yousaf, J. Chem. Phys. 133, 174116 (2010)
                 N. J. DeYonker, K. A. Peterson, A. K. Wilson, J. Phys. Chem. A 111, 11383 (2007)

----- AuxJ basis set information -----
Your calculation utilizes the auxiliary basis: def2/J
   F. Weigend, Phys. Chem. Chem. Phys. 8, 1057 (2006).

----- AuxC basis set information -----
The basis set includes element-specific modifications.

Your calculation utilizes the auxiliary basis: aug-cc-pVQZ/C
  H-He, B-F, Al-Ar, Ga-Kr : Obtained from the EMSL Basis Set Exchange (bse.pnl.gov) Feb. 2017
                            F. Weigend, A. Kohn, C. Hattig, J. Chem. Phys. 116, 3175 (2002)
                   Be, Mg : Obtained from the TURBOMOLE 7.0 basis set library
                            C. Haettig, Phys. Chem. Chem. Phys. 7, 59 (2005)
                       Ne : Obtained from the EMSL Basis Set Exchange (bse.pnl.gov) Feb. 2017
                            C. Haettig, Phys. Chem. Chem. Phys. 7, 59 (2005)
                            F. Weigend, A. Kohn, C. Hattig, J. Chem. Phys. 116, 3175 (2002)
                    Sc-Zn : Obtained from the EMSL Basis Set Exchange (bse.pnl.gov) Feb. 2017
                            D. H. Bross, J. G. Hill, H. J. Werner, K. A. Peterson, J. Chem. Phys. 139, 094302 (2013)

Your calculation utilizes the AutoAux generation procedure.
  G. L. Stoychev, A. A. Auer, F. Neese, J. Chem. Theory Comput. 13, 554 (2017)

================================================================================
                                        WARNINGS
                       Please study these warnings very carefully!
================================================================================

WARNING: Old DensityContainer found on disk!
         Will remove this file -
         If you want to keep old densities, please start your calculation with a different basename.


WARNING: No MP2 level density has been requested!
         To calculate MP2 level properties use
         %mp2 Density relaxed end
         or
         %mp2 Density unrelaxed end

WARNING: Post HF methods need fully converged wavefunctions
  ===> : Setting SCFConvForced true
         You can overwrite this default with %scf ConvForced false


================================================================================
                                       INPUT FILE
================================================================================
NAME = orca.inp
|  1> ! TightSCF RI-MP2 RIJCOSX SlowConv DIIS
|  2> %pal nprocs 8 end
|  3> %maxcore 25000
|  4> %method
|  5> Method hf
|  6> RI on
|  7> RunTyp Energy
|  8> NewNCore C 2 end
|  9> NewNCore Mg 2 end
| 10> NewNCore O 2 end
| 11> end
| 12> %basis
| 13> NewGTO C "aug-cc-pVQZ" end
| 14> NewGTO Mg "cc-pwCVQZ" end
| 15> NewGTO O "aug-cc-pVQZ" end
| 16> Aux "def2/J"
| 17> NewAuxCGTO C "aug-cc-pVQZ/C" end
| 18> NewAuxCGTO Mg "AutoAux" end
| 19> NewAuxCGTO O "aug-cc-pVQZ/C" end
| 20> end
| 21> %scf
| 22> HFTyp rhf
| 23> SCFMode Direct
| 24> sthresh 1e-6
| 25> AutoTRAHIter 60
| 26> MaxIter 1000
| 27> end
| 28> %coords
| 29> CTyp xyz
| 30> Mult 1
| 31> Units angs
| 32> Charge 0
| 33> coords
| 34> C                       0.00000000000    0.00000000000    2.44102235837
| 35> O                       0.00000000000    0.00000000000    3.58784217303
| 36> Mg:                     0.00000000000    0.00000000000    0.00000000000
| 37> O:                     -2.12018425659    0.00000000000    0.00567209089
| 38> O:                      0.00000000000    2.12018425659    0.00567209089
| 39> O:                      2.12018425659    0.00000000000    0.00567209089
| 40> O:                      0.00000000000   -2.12018425659    0.00567209089
| 41> O:                      0.00000000000    0.00000000000   -2.14129966123
| 42> Mg:                    -2.11144262254    2.11144262254   -0.04367284424
| 43> Mg:                     2.11144262254    2.11144262254   -0.04367284424
| 44> Mg:                     2.11144262254   -2.11144262254   -0.04367284424
| 45> Mg:                    -2.11144262254   -2.11144262254   -0.04367284424
| 46> O:                     -2.11070451449    2.11070451449   -2.14923989662
| 47> O:                      2.11070451449    2.11070451449   -2.14923989662
| 48> O:                      2.11070451449   -2.11070451449   -2.14923989662
| 49> O:                     -2.11070451449   -2.11070451449   -2.14923989662
| 50> Mg:                    -4.22049352791    0.00000000000   -0.04269731856
| 51> Mg:                     0.00000000000    4.22049352791   -0.04269731856
| 52> Mg:                     4.22049352791    0.00000000000   -0.04269731856
| 53> Mg:                     0.00000000000   -4.22049352791   -0.04269731856
| 54> O:                     -4.22049352791    2.11209139723    0.00772802266
| 55> O:                     -2.11209139723    4.22049352791    0.00772802266
| 56> O:                      2.11209139723    4.22049352791    0.00772802266
| 57> O:                      4.22049352791    2.11209139723    0.00772802266
| 58> O:                      4.22049352791   -2.11209139723    0.00772802266
| 59> O:                      2.11209139723   -4.22049352791    0.00772802266
| 60> O:                     -2.11209139723   -4.22049352791    0.00772802266
| 61> O:                     -4.22049352791   -2.11209139723    0.00772802266
| 62> O:                     -4.22049352791    0.00000000000   -2.15129719490
| 63> O:                      0.00000000000    4.22049352791   -2.15129719490
| 64> O:                      4.22049352791    0.00000000000   -2.15129719490
| 65> O:                      0.00000000000   -4.22049352791   -2.15129719490
| 66> O:                     -6.32080279923    0.00000000000    0.00567209089
| 67> O:                      0.00000000000    6.32080279923    0.00567209089
| 68> O:                      6.32080279923    0.00000000000    0.00567209089
| 69> O:                      0.00000000000   -6.32080279923    0.00567209089
| 70> end
| 71> end
| 72>
| 73>
| 74>                          ****END OF INPUT****
================================================================================

                       ****************************
                       * Single Point Calculation *
                       ****************************

---------------------------------
CARTESIAN COORDINATES (ANGSTROEM)
---------------------------------
  C      0.000000    0.000000    2.441022
  O      0.000000    0.000000    3.587842
  Mg     0.000000    0.000000    0.000000
  O     -2.120184    0.000000    0.005672
  O      0.000000    2.120184    0.005672
  O      2.120184    0.000000    0.005672
  O      0.000000   -2.120184    0.005672
  O      0.000000    0.000000   -2.141300
  Mg    -2.111443    2.111443   -0.043673
  Mg     2.111443    2.111443   -0.043673
  Mg     2.111443   -2.111443   -0.043673
  Mg    -2.111443   -2.111443   -0.043673
  O     -2.110705    2.110705   -2.149240
  O      2.110705    2.110705   -2.149240
  O      2.110705   -2.110705   -2.149240
  O     -2.110705   -2.110705   -2.149240
  Mg    -4.220494    0.000000   -0.042697
  Mg     0.000000    4.220494   -0.042697
  Mg     4.220494    0.000000   -0.042697
  Mg     0.000000   -4.220494   -0.042697
  O     -4.220494    2.112091    0.007728
  O     -2.112091    4.220494    0.007728
  O      2.112091    4.220494    0.007728
  O      4.220494    2.112091    0.007728
  O      4.220494   -2.112091    0.007728
  O      2.112091   -4.220494    0.007728
  O     -2.112091   -4.220494    0.007728
  O     -4.220494   -2.112091    0.007728
  O     -4.220494    0.000000   -2.151297
  O      0.000000    4.220494   -2.151297
  O      4.220494    0.000000   -2.151297
  O      0.000000   -4.220494   -2.151297
  O     -6.320803    0.000000    0.005672
  O      0.000000    6.320803    0.005672
  O      6.320803    0.000000    0.005672
  O      0.000000   -6.320803    0.005672

----------------------------
CARTESIAN COORDINATES (A.U.)
----------------------------
  NO LB      ZA    FRAG     MASS         X           Y           Z
   0 C     6.0000    0    12.011    0.000000    0.000000    4.612864
   1 O     8.0000    0    15.999    0.000000    0.000000    6.780039
   2 Mg    0.0000    0     0.000    0.000000    0.000000    0.000000
   3 O     0.0000    0     0.000   -4.006568    0.000000    0.010719
   4 O     0.0000    0     0.000    0.000000    4.006568    0.010719
   5 O     0.0000    0     0.000    4.006568    0.000000    0.010719
   6 O     0.0000    0     0.000    0.000000   -4.006568    0.010719
   7 O     0.0000    0     0.000    0.000000    0.000000   -4.046470
   8 Mg    0.0000    0     0.000   -3.990048    3.990048   -0.082530
   9 Mg    0.0000    0     0.000    3.990048    3.990048   -0.082530
  10 Mg    0.0000    0     0.000    3.990048   -3.990048   -0.082530
  11 Mg    0.0000    0     0.000   -3.990048   -3.990048   -0.082530
  12 O     0.0000    0     0.000   -3.988653    3.988653   -4.061475
  13 O     0.0000    0     0.000    3.988653    3.988653   -4.061475
  14 O     0.0000    0     0.000    3.988653   -3.988653   -4.061475
  15 O     0.0000    0     0.000   -3.988653   -3.988653   -4.061475
  16 Mg    0.0000    0     0.000   -7.975577    0.000000   -0.080686
  17 Mg    0.0000    0     0.000    0.000000    7.975577   -0.080686
  18 Mg    0.0000    0     0.000    7.975577    0.000000   -0.080686
  19 Mg    0.0000    0     0.000    0.000000   -7.975577   -0.080686
  20 O     0.0000    0     0.000   -7.975577    3.991274    0.014604
  21 O     0.0000    0     0.000   -3.991274    7.975577    0.014604
  22 O     0.0000    0     0.000    3.991274    7.975577    0.014604
  23 O     0.0000    0     0.000    7.975577    3.991274    0.014604
  24 O     0.0000    0     0.000    7.975577   -3.991274    0.014604
  25 O     0.0000    0     0.000    3.991274   -7.975577    0.014604
  26 O     0.0000    0     0.000   -3.991274   -7.975577    0.014604
  27 O     0.0000    0     0.000   -7.975577   -3.991274    0.014604
  28 O     0.0000    0     0.000   -7.975577    0.000000   -4.065363
  29 O     0.0000    0     0.000    0.000000    7.975577   -4.065363
  30 O     0.0000    0     0.000    7.975577    0.000000   -4.065363
  31 O     0.0000    0     0.000    0.000000   -7.975577   -4.065363
  32 O     0.0000    0     0.000  -11.944586    0.000000    0.010719
  33 O     0.0000    0     0.000    0.000000   11.944586    0.010719
  34 O     0.0000    0     0.000   11.944586    0.000000    0.010719
  35 O     0.0000    0     0.000    0.000000  -11.944586    0.010719

--------------------------------
INTERNAL COORDINATES (ANGSTROEM)
--------------------------------
 C      0   0   0     0.000000000000     0.00000000     0.00000000
 O      1   0   0     1.146819814660     0.00000000     0.00000000
 Mg     1   2   0     2.441022358370   179.99999915     0.00000000
 O      3   1   2     2.120191843798    89.84671800     0.00000000
 O      3   1   2     2.120191843798    89.84671800     0.00000000
 O      3   1   2     2.120191843798    89.84671800     0.00000000
 O      3   1   2     2.120191843798    89.84671800     0.00000000
 O      3   1   2     2.141299661230   179.99999852     0.00000000
 Mg     4   3   1     2.112037236193    89.75927407    91.33813376
 Mg     5   3   1     2.112037236193    89.75927407    91.33813376
 Mg     6   3   1     2.112037236193    89.75927407    91.33813376
 Mg     4   3   1     2.112037236193    89.75927407   268.66186624
 O      9   4   3     2.105567311124    91.31875951    89.83212722
 O     10   5   3     2.105567311124    91.31875951    89.83212722
 O     11   6   3     2.105567311124    91.31875951    89.83212722
 O     12   4   3     2.105567311124    91.31875951   270.16787278
 Mg     4   3   1     2.100866163030   178.52744884   180.00000000
 Mg     5   3   1     2.100866163030   178.52744884   180.00000000
 Mg     6   3   1     2.100866163030   178.52744884   180.00000000
 Mg     7   3   1     2.100866163030   178.52744884   180.00000000
 O      9   4   3     2.109677271876    89.74792452   181.24291387
 O      9   4   3     2.109677271876   177.25328254   264.52840758
 O     10   5   3     2.109677271876    89.74792452   181.24291387
 O     10   5   3     2.109677271876   177.25328254   264.52840758
 O     11   6   3     2.109677271876    89.74792452   181.24291387
 O     11   6   3     2.109677271876   177.25328254   264.52840758
 O     12   4   3     2.109677271876   177.25328254    95.47159242
 O     12   4   3     2.109677271876    89.74792452   178.75708613
 O     17   4   9     2.108599876340    91.31926915    88.65612348
 O     18   5   9     2.108599876340    91.31926915   271.34387652
 O     19   6  10     2.108599876340    91.31926915   271.34387652
 O     20   7  11     2.108599876340    91.31926915   271.34387652
 O     17   4   9     2.100866163030   177.36146170   268.65612348
 O     18   5   9     2.100866163030   177.36146170    91.34387652
 O     19   6  10     2.100866163030   177.36146170    91.34387652
 O     20   7  11     2.100866163030   177.36146170    91.34387652

---------------------------
INTERNAL COORDINATES (A.U.)
---------------------------
 C      0   0   0     0.000000000000     0.00000000     0.00000000
 O      1   0   0     2.167175374662     0.00000000     0.00000000
 Mg     1   2   0     4.612863744098   179.99999915     0.00000000
 O      3   1   2     4.006581936152    89.84671800     0.00000000
 O      3   1   2     4.006581936152    89.84671800     0.00000000
 O      3   1   2     4.006581936152    89.84671800     0.00000000
 O      3   1   2     4.006581936152    89.84671800     0.00000000
 O      3   1   2     4.046469930383   179.99999852     0.00000000
 Mg     4   3   1     3.991171961049    89.75927407    91.33813376
 Mg     5   3   1     3.991171961049    89.75927407    91.33813376
 Mg     6   3   1     3.991171961049    89.75927407    91.33813376
 Mg     4   3   1     3.991171961049    89.75927407   268.66186624
 O      9   4   3     3.978945574562    91.31875951    89.83212722
 O     10   5   3     3.978945574562    91.31875951    89.83212722
 O     11   6   3     3.978945574562    91.31875951    89.83212722
 O     12   4   3     3.978945574562    91.31875951   270.16787278
 Mg     4   3   1     3.970061692148   178.52744884   180.00000000
 Mg     5   3   1     3.970061692148   178.52744884   180.00000000
 Mg     6   3   1     3.970061692148   178.52744884   180.00000000
 Mg     7   3   1     3.970061692148   178.52744884   180.00000000
 O      9   4   3     3.986712274803    89.74792452   181.24291387
 O      9   4   3     3.986712274803   177.25328254   264.52840758
 O     10   5   3     3.986712274803    89.74792452   181.24291387
 O     10   5   3     3.986712274803   177.25328254   264.52840758
 O     11   6   3     3.986712274803    89.74792452   181.24291387
 O     11   6   3     3.986712274803   177.25328254   264.52840758
 O     12   4   3     3.986712274803   177.25328254    95.47159242
 O     12   4   3     3.986712274803    89.74792452   178.75708613
 O     17   4   9     3.984676292303    91.31926915    88.65612348
 O     18   5   9     3.984676292303    91.31926915   271.34387652
 O     19   6  10     3.984676292303    91.31926915   271.34387652
 O     20   7  11     3.984676292303    91.31926915   271.34387652
 O     17   4   9     3.970061692148   177.36146170   268.65612348
 O     18   5   9     3.970061692148   177.36146170    91.34387652
 O     19   6  10     3.970061692148   177.36146170    91.34387652
 O     20   7  11     3.970061692148   177.36146170    91.34387652

---------------------
BASIS SET INFORMATION
---------------------
There are 3 groups of distinct atoms

 Group   1 Type C   : 22s7p4d3f2g contracted to 6s5p4d3f2g pattern {991111/31111/1111/111/11}
 Group   2 Type O   : 22s7p4d3f2g contracted to 6s5p4d3f2g pattern {991111/31111/1111/111/11}
 Group   3 Type Mg  : 45s24p6d4f2g contracted to 9s8p6d4f2g pattern {131313111111/99111111/111111/1111/11}

Atom   0C    basis set group =>   1
Atom   1O    basis set group =>   2
Atom   2Mg   basis set group =>   3
Atom   3O    basis set group =>   2
Atom   4O    basis set group =>   2
Atom   5O    basis set group =>   2
Atom   6O    basis set group =>   2
Atom   7O    basis set group =>   2
Atom   8Mg   basis set group =>   3
Atom   9Mg   basis set group =>   3
Atom  10Mg   basis set group =>   3
Atom  11Mg   basis set group =>   3
Atom  12O    basis set group =>   2
Atom  13O    basis set group =>   2
Atom  14O    basis set group =>   2
Atom  15O    basis set group =>   2
Atom  16Mg   basis set group =>   3
Atom  17Mg   basis set group =>   3
Atom  18Mg   basis set group =>   3
Atom  19Mg   basis set group =>   3
Atom  20O    basis set group =>   2
Atom  21O    basis set group =>   2
Atom  22O    basis set group =>   2
Atom  23O    basis set group =>   2
Atom  24O    basis set group =>   2
Atom  25O    basis set group =>   2
Atom  26O    basis set group =>   2
Atom  27O    basis set group =>   2
Atom  28O    basis set group =>   2
Atom  29O    basis set group =>   2
Atom  30O    basis set group =>   2
Atom  31O    basis set group =>   2
Atom  32O    basis set group =>   2
Atom  33O    basis set group =>   2
Atom  34O    basis set group =>   2
Atom  35O    basis set group =>   2
---------------------------------
AUXILIARY/J BASIS SET INFORMATION
---------------------------------
There are 3 groups of distinct atoms

 Group   1 Type C   : 12s5p4d2f1g contracted to 6s4p3d1f1g pattern {711111/2111/211/2/1}
 Group   2 Type O   : 12s5p4d2f1g contracted to 6s4p3d1f1g pattern {711111/2111/211/2/1}
 Group   3 Type Mg  : 14s5p5d2f1g contracted to 8s4p4d1f1g pattern {71111111/2111/2111/2/1}

Atom   0C    basis set group =>   1
Atom   1O    basis set group =>   2
Atom   2Mg   basis set group =>   3
Atom   3O    basis set group =>   2
Atom   4O    basis set group =>   2
Atom   5O    basis set group =>   2
Atom   6O    basis set group =>   2
Atom   7O    basis set group =>   2
Atom   8Mg   basis set group =>   3
Atom   9Mg   basis set group =>   3
Atom  10Mg   basis set group =>   3
Atom  11Mg   basis set group =>   3
Atom  12O    basis set group =>   2
Atom  13O    basis set group =>   2
Atom  14O    basis set group =>   2
Atom  15O    basis set group =>   2
Atom  16Mg   basis set group =>   3
Atom  17Mg   basis set group =>   3
Atom  18Mg   basis set group =>   3
Atom  19Mg   basis set group =>   3
Atom  20O    basis set group =>   2
Atom  21O    basis set group =>   2
Atom  22O    basis set group =>   2
Atom  23O    basis set group =>   2
Atom  24O    basis set group =>   2
Atom  25O    basis set group =>   2
Atom  26O    basis set group =>   2
Atom  27O    basis set group =>   2
Atom  28O    basis set group =>   2
Atom  29O    basis set group =>   2
Atom  30O    basis set group =>   2
Atom  31O    basis set group =>   2
Atom  32O    basis set group =>   2
Atom  33O    basis set group =>   2
Atom  34O    basis set group =>   2
Atom  35O    basis set group =>   2
---------------------------------
AUXILIARY/C BASIS SET INFORMATION
---------------------------------
There are 3 groups of distinct atoms

 Group   1 Type C   : 9s8p7d6f4g2h contracted to 9s8p7d6f4g2h pattern {111111111/11111111/1111111/111111/1111/11}
 Group   2 Type O   : 9s8p7d6f4g2h contracted to 9s8p7d6f4g2h pattern {111111111/11111111/1111111/111111/1111/11}
 Group   3 Type Mg  : 19s17p16d9f8g7h contracted to 19s17p16d9f8g7h pattern {1111111111111111111/11111111111111111/1111111111111111/111111111/11111111/1111111}

Atom   0C    basis set group =>   1
Atom   1O    basis set group =>   2
Atom   2Mg   basis set group =>   3
Atom   3O    basis set group =>   2
Atom   4O    basis set group =>   2
Atom   5O    basis set group =>   2
Atom   6O    basis set group =>   2
Atom   7O    basis set group =>   2
Atom   8Mg   basis set group =>   3
Atom   9Mg   basis set group =>   3
Atom  10Mg   basis set group =>   3
Atom  11Mg   basis set group =>   3
Atom  12O    basis set group =>   2
Atom  13O    basis set group =>   2
Atom  14O    basis set group =>   2
Atom  15O    basis set group =>   2
Atom  16Mg   basis set group =>   3
Atom  17Mg   basis set group =>   3
Atom  18Mg   basis set group =>   3
Atom  19Mg   basis set group =>   3
Atom  20O    basis set group =>   2
Atom  21O    basis set group =>   2
Atom  22O    basis set group =>   2
Atom  23O    basis set group =>   2
Atom  24O    basis set group =>   2
Atom  25O    basis set group =>   2
Atom  26O    basis set group =>   2
Atom  27O    basis set group =>   2
Atom  28O    basis set group =>   2
Atom  29O    basis set group =>   2
Atom  30O    basis set group =>   2
Atom  31O    basis set group =>   2
Atom  32O    basis set group =>   2
Atom  33O    basis set group =>   2
Atom  34O    basis set group =>   2
Atom  35O    basis set group =>   2

Checking for AutoStart:
The File: orca.gbw exists
Trying to determine its content:
     ... Fine, the file contains calculation information
     ... Fine, the calculation information was read
     ... Fine, the file contains a basis set
     ... Fine, the basis set was read
     ... Fine, the file contains a geometry
     ... Fine, the geometry was read
     ... Fine, the file contains a set of orbitals
     ... Fine, the orbitals can be read
     => possible old guess file was deleted
     => GBW file was renamed to GES file
     => GES file is set as startup file
     => Guess is set to MORead
     ... now leaving AutoStart



           ************************************************************
           *        Program running with 8 parallel MPI-processes     *
           *              working on a common directory               *
           ************************************************************
------------------------------------------------------------------------------
                             ORCA STARTUP CALCULATIONS
                           -- RI-GTO INTEGRALS CHOSEN --
------------------------------------------------------------------------------
------------------------------------------------------------------------------
                   ___
                  /   \      - P O W E R E D   B Y -
                 /     \
                 |  |  |   _    _      __       _____    __    __
                 |  |  |  | |  | |    /  \     |  _  \  |  |  /  |
                  \  \/   | |  | |   /    \    | | | |  |  | /  /
                 / \  \   | |__| |  /  /\  \   | |_| |  |  |/  /
                |  |  |   |  __  | /  /__\  \  |    /   |      \
                |  |  |   | |  | | |   __   |  |    \   |  |\   \
                \     /   | |  | | |  |  |  |  | |\  \  |  | \   \
                 \___/    |_|  |_| |__|  |__|  |_| \__\ |__|  \__/

                      - O R C A' S   B I G   F R I E N D -
                                      &
                       - I N T E G R A L  F E E D E R -

 v1 FN, 2020, v2 2021, v3 2022-2024
------------------------------------------------------------------------------


----------------------
SHARK INTEGRAL PACKAGE
----------------------

Number of atoms                             ...     36
Number of basis functions                   ...   3609
Number of shells                            ...   1143
Maximum angular momentum                    ...      4
Integral batch strategy                     ... SHARK/LIBINT Hybrid
RI-J (if used) integral strategy            ... SPLIT-RIJ (Revised 2003 algorithm where possible)
Printlevel                                  ...      1
Contraction scheme used                     ... PARTIAL GENERAL contraction
Prescreening option                         ... SCHWARTZ
   Thresh                                   ... 2.500e-11
   Tcut                                     ... 2.500e-12
   Tpresel                                  ... 2.500e-12
Coulomb Range Separation                    ... NOT USED
Exchange Range Separation                   ... NOT USED
Multipole approximations                    ... NOT USED
Finite Nucleus Model                        ... NOT USED
CABS basis                                  ... NOT available
Auxiliary Coulomb fitting basis             ... AVAILABLE
   # of basis functions in Aux-J            ...   1827
   # of shells in Aux-J                     ...    567
   Maximum angular momentum in Aux-J        ...      4
Auxiliary J/K fitting basis                 ... NOT available
Auxiliary Correlation fitting basis         ... AVAILABLE
   # of basis functions in Aux-C            ...   7794
   # of shells in Aux-C                     ...   1656
   Maximum angular momentum in Aux-C        ...      5
Auxiliary 'external' fitting basis          ... NOT available

Checking pre-screening integrals            ... done (  0.0 sec) Dimension = 1143
Save PGC pre-screening integrals            ... done (  0.0 sec) Dimension = 1143
Calculate PGC overlap integrals             ... done (  0.3 sec) Dimension = 801
Calculating pre-screening integrals (ORCA)  ... done (  4.2 sec) Dimension = 801
Check shell pair data                       ... done (  0.0 sec)
Shell pair information
Shell pair cut-off parameter TPreSel        ...   2.5e-12
Total number of shell pairs                 ...    653796
Shell pairs after pre-screening             ...    291052
Total number of primitive shell pairs       ...    717084
Primitive shell pairs kept                  ...    301949
          la=0 lb=0:  40185 shell pairs
          la=1 lb=0:  64148 shell pairs
          la=1 lb=1:  22222 shell pairs
          la=2 lb=0:  37508 shell pairs
          la=2 lb=1:  26473 shell pairs
          la=2 lb=2:   8250 shell pairs
          la=3 lb=0:  24503 shell pairs
          la=3 lb=1:  18235 shell pairs
          la=3 lb=2:  10962 shell pairs
          la=3 lb=3:   3647 shell pairs
          la=4 lb=0:  13067 shell pairs
          la=4 lb=1:  10251 shell pairs
          la=4 lb=2:   6174 shell pairs
          la=4 lb=3:   4220 shell pairs
          la=4 lb=4:   1207 shell pairs

Calculating one electron integrals          ... done (  0.9 sec)
Calculating RI/J V-Matrix + Cholesky decomp.... done (  0.2 sec)
Calculating RI/C V-Matrix + Cholesky decomp.... done (  4.0 sec)
Calculating Nuclear repulsion               ... done (  0.0 sec) ENN=     22.148645910806 Eh

Diagonalization of the overlap matrix:
Smallest eigenvalue                        ... 3.733e-07
Time for diagonalization                   ...    1.885 sec
Threshold for overlap eigenvalues          ... 1.000e-06
Number of eigenvalues below threshold      ... 4
Smallest eigenvalue above threshold        ... 1.644e-06

IMPORTANT:
Smallest eigenvalue of S below the DiffSThresh (1.000e-06) while
Thresh>1e-12 and/or TCut>1e-13! In order to avoid SCF convergence issues,
Thresh will be set to at least 1e-12 and TCut to at least 1e-13.
This can be turned off by adding %SCF DiffSThresh -1 END to the input.

Time for construction of square roots      ...    1.553 sec
Total time needed                          ...    3.520 sec

-------------------
DFT GRID GENERATION
-------------------

General Integration Accuracy     IntAcc      ... 4.388
Radial Grid Type                 RadialGrid  ... OptM3 with GC (2021)
Angular Grid (max. ang.)         AngularGrid ... 4 (Lebedev-302)
Angular grid pruning method      GridPruning ... 4 (adaptive)
Weight generation scheme         WeightScheme... mBecke (2022)
Basis function cutoff            BFCut       ... 1.0000e-11
Integration weight cutoff        WCut        ... 1.0000e-14
Partially contracted basis set               ... off
Rotationally invariant grid construction     ... off
Angular grids for H and He will be reduced by one unit
Diffuse basis detected: some atoms will have their outermost
                        angular grid increased by 1.
Core-polarized basis detected: some atoms will have their core
                               angular grid increased.

Total number of grid points                  ...   254193
Total number of batches                      ...     3988
Average number of points per batch           ...       63
Average number of grid points per atom       ...     7061

---------------------
SHARK GRID GENERATION
---------------------

General Integration Accuracy     IntAcc      ... 4.388
Radial Grid Type                 RadialGrid  ... OptM3 with GC (2021)
Angular Grid (max. ang.)         AngularGrid ... 4 (Lebedev-302)
Angular grid pruning method      GridPruning ... 4 (adaptive)
Weight generation scheme         WeightScheme... mBecke (2022)
Basis function cutoff            BFCut       ... 1.0000e-11
Integration weight cutoff        WCut        ... 1.0000e-14
Partially contracted basis set               ... off
Rotationally invariant grid construction     ... off
Angular grids for H and He will be reduced by one unit
Diffuse basis detected: some atoms will have their outermost
                        angular grid increased by 1.
Core-polarized basis detected: some atoms will have their core
                               angular grid increased.
Steep s-basis detected: some atoms will have their radial
                        grid points doubled.

Total number of grid points                  ...   510296
Total number of batches                      ...     7990
Average number of points per batch           ...       63
Average number of grid points per atom       ...    14175

--------------------
COSX GRID GENERATION
--------------------

GRIDX 1
-------
General Integration Accuracy     IntAcc      ... 3.816
Radial Grid Type                 RadialGrid  ... OptM3 with GC (2021)
Angular Grid (max. ang.)         AngularGrid ... 1 (Lebedev-50)
Angular grid pruning method      GridPruning ... 4 (adaptive)
Weight generation scheme         WeightScheme... mBecke (2022)
Basis function cutoff            BFCut       ... 1.0000e-11
Integration weight cutoff        WCut        ... 1.0000e-14
Partially contracted basis set               ... on
Rotationally invariant grid construction     ... off
Angular grids for H and He will be reduced by one unit
Diffuse basis detected: some atoms will have their outermost
                        angular grid increased by 1.
Core-polarized basis detected: some atoms will have their core
                               angular grid increased.

Total number of grid points                  ...    39898
Total number of batches                      ...      332
Average number of points per batch           ...      120
Average number of grid points per atom       ...     1108
UseSFitting                                  ... on

GRIDX 2
-------
General Integration Accuracy     IntAcc      ... 4.020
Radial Grid Type                 RadialGrid  ... OptM3 with GC (2021)
Angular Grid (max. ang.)         AngularGrid ... 2 (Lebedev-110)
Angular grid pruning method      GridPruning ... 4 (adaptive)
Weight generation scheme         WeightScheme... mBecke (2022)
Basis function cutoff            BFCut       ... 1.0000e-11
Integration weight cutoff        WCut        ... 1.0000e-14
Partially contracted basis set               ... on
Rotationally invariant grid construction     ... off
Angular grids for H and He will be reduced by one unit
Diffuse basis detected: some atoms will have their outermost
                        angular grid increased by 1.
Core-polarized basis detected: some atoms will have their core
                               angular grid increased.

Total number of grid points                  ...    75226
Total number of batches                      ...      609
Average number of points per batch           ...      123
Average number of grid points per atom       ...     2090
UseSFitting                                  ... on

GRIDX 3
-------
General Integration Accuracy     IntAcc      ... 4.338
Radial Grid Type                 RadialGrid  ... OptM3 with GC (2021)
Angular Grid (max. ang.)         AngularGrid ... 3 (Lebedev-194)
Angular grid pruning method      GridPruning ... 4 (adaptive)
Weight generation scheme         WeightScheme... mBecke (2022)
Basis function cutoff            BFCut       ... 1.0000e-11
Integration weight cutoff        WCut        ... 1.0000e-14
Partially contracted basis set               ... on
Rotationally invariant grid construction     ... off
Angular grids for H and He will be reduced by one unit
Diffuse basis detected: some atoms will have their outermost
                        angular grid increased by 1.
Core-polarized basis detected: some atoms will have their core
                               angular grid increased.

Total number of grid points                  ...   166997
Total number of batches                      ...     1319
Average number of points per batch           ...      126
Average number of grid points per atom       ...     4639
UseSFitting                                  ... on
Initializing property integral containers    ... done (  0.0 sec)

SHARK setup successfully completed in  55.3 seconds

Maximum memory used throughout the entire STARTUP-calculation: 750.0 MB


           ************************************************************
           *        Program running with 8 parallel MPI-processes     *
           *              working on a common directory               *
           ************************************************************
-------------------------------------------------------------------------------
                                 ORCA GUESS
                   Start orbitals & Density for SCF / CASSCF
-------------------------------------------------------------------------------

------------
SCF SETTINGS
------------
Hamiltonian:
 Ab initio Hamiltonian  Method          .... Hartree-Fock(GTOs)
 RI-approximation to the Coulomb term is turned on
   Number of AuxJ basis functions       .... 1827
   RIJ-COSX (HFX calculated with COS-X)).... on


General Settings:
 Integral files         IntName         .... orca
 Hartree-Fock type      HFTyp           .... RHF
 Total Charge           Charge          ....    0
 Multiplicity           Mult            ....    1
 Number of Electrons    NEL             ....   14
 Basis Dimension        Dim             .... 3141
 Nuclear Repulsion      ENuc            ....     22.1486459108 Eh

Convergence Acceleration:
 AO-DIIS                CNVDIIS         .... on
   Start iteration      DIISMaxIt       ....     0
   Startup error        DIISStart       ....  0.200000
   # of expansion vecs  DIISMaxEq       ....     5
   Bias factor          DIISBfac        ....   1.050
   Max. coefficient     DIISMaxC        ....  10.000
 MO-DIIS                CNVKDIIS        .... off
 Trust-Rad. Augm. Hess. CNVTRAH         .... auto
   Auto Start mean grad. ratio tolernc. ....  1.125000
   Auto Start start iteration           ....     1
   Auto Start num. interpolation iter.  ....    10
   Max. Number of Micro iterations      ....    24
   Max. Number of Macro iterations      .... Maxiter - #DIIS iter
   Number of Davidson start vectors     ....     2
   Converg. threshold    (grad. norm)   ....   1.000e-05
   Grad. Scal. Fac. for Micro threshold ....   0.100
   Minimum threshold for Micro iter.    ....   1.000e-02
   NR start threshold (gradient norm)   ....   1.000e-04
   Initial trust radius                 ....   0.400
   Minimum AH scaling param. (alpha)    ....   1.000
   Maximum AH scaling param. (alpha)    .... 1000.000
   Quad. conv. algorithm                .... NR
   White noise on init. David. guess    .... on
   Maximum white noise                  ....   0.010
   Pseudo random numbers                .... off
   Inactive MOs                         .... canonical
   Orbital update algorithm             .... Taylor
   Preconditioner                       .... Diag
   Full preconditioner red. dimension   ....   250
 SOSCF                  CNVSOSCF        .... on
   Start iteration      SOSCFMaxIt      ....   150
   Startup grad/error   SOSCFStart      ....  0.001000
   Hessian update       SOSCFHessUp     .... L-BFGS
 Level Shifting         CNVShift        .... on
   Level shift para.    LevelShift      ....    0.2500
   Turn off err/grad.   ShiftErr        ....    0.0000
 Zerner damping         CNVZerner       .... off
 Static damping         CNVDamp         .... on
   Fraction old density DampFac         ....    0.8500
   Max. Damping (<1)    DampMax         ....    0.9800
   Min. Damping (>=0)   DampMin         ....    0.0000
   Turn off err/grad.   DampErr         ....    0.0300

SCF Procedure:
 Maximum # iterations   MaxIter         ....  1000
 SCF integral mode      SCFMode         .... Direct
   Integral package                     .... SHARK and LIBINT hybrid scheme
 Reset frequency        DirectResetFreq ....    20
 Integral Threshold     Thresh          ....  1.000e-12 Eh
 Primitive CutOff       TCut            ....  1.000e-13 Eh

Convergence Tolerance:
 Convergence Check Mode ConvCheckMode   .... Total+1el-Energy
 Convergence forced     ConvForced      .... 1
 Energy Change          TolE            ....  1.000e-08 Eh
 1-El. energy change                    ....  1.000e-05 Eh
 Orbital Gradient       TolG            ....  1.000e-05
 Orbital Rotation angle TolX            ....  1.000e-05
 DIIS Error             TolErr          ....  5.000e-07

---------------------
INITIAL GUESS: MOREAD
---------------------
Guess MOs are being read from file: orca.ges
Input Geometry matches current geometry (good)
Atom 0: N(Shells)= 20 and 14 - projection required
Input basis set needs projection
NBasis(read)= 1773
NBasis(calc)= 3141
Basis set overlap was calculated
Using GuessMode=FMatrix for the initial guess
C*T matrix was formed
Effective Fockian was calculated
Effective Fockian was diagonalized
Initial density was built
                      ------------------
                      INITIAL GUESS DONE (  11.6 sec)
                      ------------------
             **** ENERGY FILE WAS UPDATED (orca.en.tmp) ****
Finished Guess after  15.9 sec
Maximum memory used throughout the entire GUESS-calculation: 965.5 MB


           ************************************************************
           *        Program running with 8 parallel MPI-processes     *
           *              working on a common directory               *
           ************************************************************

-------------------------------------------------------------------------------------------
                                      ORCA LEAN-SCF
                              memory conserving SCF solver
-------------------------------------------------------------------------------------------

----------------------------------------D-I-I-S--------------------------------------------
Iteration    Energy (Eh)           Delta-E    RMSDP     MaxDP     DIISErr   Damp  Time(sec)
-------------------------------------------------------------------------------------------
               ***  Starting incremental Fock matrix formation  ***
    1    -112.7846823595061068     0.00e+00  1.04e-04  3.72e-02  3.60e-02  0.850 204.8
    2    -112.7848643951541447    -1.82e-04  9.78e-05  3.55e-02  3.10e-02  0.850  98.2
                               ***Turning on AO-DIIS***
    3    -112.7850218756386340    -1.57e-04  8.80e-05  3.19e-02  2.66e-02  0.850  92.2
    4    -112.7851573675022365    -1.35e-04  5.11e-04  1.85e-01  2.27e-02  0.000  91.3
                              *** Initializing SOSCF ***
---------------------------------------S-O-S-C-F--------------------------------------
Iteration    Energy (Eh)           Delta-E    RMSDP     MaxDP     MaxGrad    Time(sec)
--------------------------------------------------------------------------------------
    5    -112.7859605407781345    -8.03e-04  1.32e-05  5.24e-03  3.32e-04   118.2
               *** Restarting incremental Fock matrix formation ***
    6    -112.7859621429521297    -1.60e-06  9.48e-06  2.73e-03  2.55e-05   168.1
    7    -112.7859621693732066    -2.64e-08  2.19e-06  6.92e-04  1.43e-05    96.1
    8    -112.7859621672454722     2.13e-09  1.34e-06  3.55e-04  4.29e-06    73.5
                 **** Energy Check signals convergence ****

               *****************************************************
               *                     SUCCESS                       *
               *           SCF CONVERGED AFTER   8 CYCLES          *
               *****************************************************

Recomputing exchange energy using gridx3       ... done (  301.934 sec)
Old exchange energy                            :    -13.309286479 Eh
New exchange energy                            :    -13.309264511 Eh
Exchange energy change after final integration :      0.000021968 Eh
Total energy after final integration           :   -112.785940199 Eh
             **** ENERGY FILE WAS UPDATED (orca.en.tmp) ****

----------------
TOTAL SCF ENERGY
----------------

Total Energy       :       -112.78594019945812 Eh           -3069.06146 eV

Components:
Nuclear Repulsion  :         22.14864591080557 Eh             602.69530 eV
Electronic Energy  :       -134.93460807805104 Eh           -3671.75735 eV
One Electron Energy:       -197.53359418355848 Eh           -5375.16237 eV
Two Electron Energy:         62.59898610550744 Eh            1703.40501 eV

Virial components:
Potential Energy   :       -225.32254341861943 Eh           -6131.33812 eV
Kinetic Energy     :        112.53660321916132 Eh            3062.27666 eV
Virial Ratio       :          2.00221560783927

---------------
SCF CONVERGENCE
---------------

  Last Energy change         ...   -2.1277e-09  Tolerance :   1.0000e-08
  Last MAX-Density change    ...    3.5453e-04  Tolerance :   1.0000e-07
  Last RMS-Density change    ...    1.3406e-06  Tolerance :   5.0000e-09
  Last DIIS Error            ...    3.3220e-04  Tolerance :   5.0000e-07
  Last Orbital Gradient      ...    4.2931e-06  Tolerance :   1.0000e-05
  Last Orbital Rotation      ...    3.6693e-06  Tolerance :   1.0000e-05


----------------
ORBITAL ENERGIES
----------------

  NO   OCC          E(Eh)            E(eV)
   0   2.0000     -20.665801      -562.3450
   1   2.0000     -11.368699      -309.3580
   2   2.0000      -1.508904       -41.0594
   3   2.0000      -0.802922       -21.8486
   4   2.0000      -0.632283       -17.2053
   5   2.0000      -0.632283       -17.2053
   6   2.0000      -0.556919       -15.1545
   7   0.0000       0.014535         0.3955
   8   0.0000       0.020413         0.5555
   9   0.0000       0.020413         0.5555
  10   0.0000       0.031479         0.8566
  11   0.0000       0.031700         0.8626
  12   0.0000       0.036644         0.9971
  13   0.0000       0.043106         1.1730
  14   0.0000       0.043883         1.1941
  15   0.0000       0.043883         1.1941
  16   0.0000       0.049080         1.3355
  17   0.0000       0.049080         1.3355
*Only the first 10 virtual orbitals were printed.

                    ********************************
                    * MULLIKEN POPULATION ANALYSIS *
                    ********************************

-----------------------
MULLIKEN ATOMIC CHARGES
-----------------------
   0 C :    0.951376
   1 O :   -0.850413
   2 Mg:   -0.081620
   3 O :    0.004732
   4 O :    0.001722
   5 O :    0.003230
   6 O :    0.000378
   7 O :   -0.000203
   8 Mg:   -0.003161
   9 Mg:   -0.004273
  10 Mg:   -0.001610
  11 Mg:   -0.002547
  12 O :   -0.000098
  13 O :   -0.000079
  14 O :   -0.000080
  15 O :   -0.000108
  16 Mg:   -0.003522
  17 Mg:   -0.005626
  18 Mg:   -0.004152
  19 Mg:   -0.004104
  20 O :   -0.000019
  21 O :    0.000014
  22 O :   -0.000004
  23 O :    0.000012
  24 O :    0.000058
  25 O :    0.000093
  26 O :    0.000034
  27 O :    0.000060
  28 O :   -0.000012
  29 O :   -0.000002
  30 O :   -0.000020
  31 O :    0.000004
  32 O :   -0.000011
  33 O :   -0.000021
  34 O :   -0.000017
  35 O :   -0.000009
Sum of atomic charges:   -0.0000000

--------------------------------
MULLIKEN REDUCED ORBITAL CHARGES
--------------------------------
  0 C s       :     3.549351  s :     3.549351
      pz      :     0.908429  p :     1.470212
      px      :     0.280844
      py      :     0.280939
      dz2     :     0.001979  d :     0.025098
      dxz     :     0.011518
      dyz     :     0.011601
      dx2y2   :    -0.000000
      dxy     :    -0.000000
      f0      :     0.001104  f :     0.004789
      f+1     :     0.001825
      f-1     :     0.001860
      f+2     :     0.000000
      f-2     :    -0.000000
      f+3     :     0.000000
      f-3     :     0.000000
      g0      :    -0.000111  g :    -0.000827
      g+1     :    -0.000361
      g-1     :    -0.000355
      g+2     :    -0.000000
      g-2     :    -0.000000
      g+3     :    -0.000000
      g-3     :    -0.000000
      g+4     :     0.000000
      g-4     :    -0.000000

  1 O s       :     4.012953  s :     4.012953
      pz      :     1.487894  p :     4.736342
      px      :     1.624357
      py      :     1.624091
      dz2     :     0.019480  d :     0.090298
      dxz     :     0.035417
      dyz     :     0.035400
      dx2y2   :     0.000000
      dxy     :    -0.000000
      f0      :     0.000504  f :     0.009628
      f+1     :     0.004560
      f-1     :     0.004564
      f+2     :     0.000000
      f-2     :     0.000000
      f+3     :     0.000000
      f-3     :     0.000000
      g0      :     0.000188  g :     0.001192
      g+1     :     0.000502
      g-1     :     0.000503
      g+2     :    -0.000000
      g-2     :    -0.000000
      g+3     :     0.000000
      g-3     :     0.000000
      g+4     :     0.000000
      g-4     :     0.000000

  2 Mgs       :     0.046666  s :     0.046666
      pz      :     0.002793  p :     0.048588
      px      :     0.021897
      py      :     0.023898
      dz2     :    -0.001237  d :    -0.010058
      dxz     :    -0.004402
      dyz     :    -0.004418
      dx2y2   :    -0.000000
      dxy     :     0.000000
      f0      :     0.000041  f :    -0.003077
      f+1     :    -0.001582
      f-1     :    -0.001537
      f+2     :     0.000000
      f-2     :    -0.000000
      f+3     :     0.000000
      f-3     :     0.000000
      g0      :    -0.000402  g :    -0.000499
      g+1     :    -0.000049
      g-1     :    -0.000047
      g+2     :    -0.000000
      g-2     :     0.000000
      g+3     :    -0.000000
      g-3     :    -0.000000
      g+4     :    -0.000000
      g-4     :    -0.000000

  3 O s       :    -0.014818  s :    -0.014818
      pz      :     0.008754  p :     0.008568
      px      :     0.001433
      py      :    -0.001619
      dz2     :    -0.000033  d :     0.001450
      dxz     :     0.001128
      dyz     :    -0.000045
      dx2y2   :     0.000258
      dxy     :     0.000143
      f0      :    -0.000004  f :     0.000066
      f+1     :     0.000043
      f-1     :     0.000002
      f+2     :     0.000018
      f-2     :     0.000001
      f+3     :     0.000007
      f-3     :    -0.000002
      g0      :    -0.000000  g :     0.000001
      g+1     :     0.000000
      g-1     :     0.000000
      g+2     :     0.000000
      g-2     :    -0.000000
      g+3     :     0.000000
      g-3     :    -0.000000
      g+4     :     0.000000
      g-4     :    -0.000000

  4 O s       :    -0.015876  s :    -0.015876
      pz      :     0.009841  p :     0.012801
      px      :    -0.002009
      py      :     0.004969
      dz2     :     0.000071  d :     0.001284
      dxz     :    -0.000059
      dyz     :     0.001008
      dx2y2   :     0.000121
      dxy     :     0.000144
      f0      :    -0.000007  f :     0.000068
      f+1     :     0.000002
      f-1     :     0.000045
      f+2     :     0.000022
      f-2     :     0.000001
      f+3     :    -0.000003
      f-3     :     0.000007
      g0      :     0.000000  g :     0.000001
      g+1     :     0.000000
      g-1     :     0.000000
      g+2     :     0.000000
      g-2     :    -0.000000
      g+3     :     0.000000
      g-3     :     0.000000
      g+4     :     0.000000
      g-4     :    -0.000000

  5 O s       :    -0.014901  s :    -0.014901
      pz      :     0.008932  p :     0.009986
      px      :     0.003032
      py      :    -0.001979
      dz2     :    -0.000026  d :     0.001630
      dxz     :     0.001140
      dyz     :    -0.000039
      dx2y2   :     0.000413
      dxy     :     0.000142
      f0      :    -0.000007  f :     0.000055
      f+1     :     0.000039
      f-1     :     0.000002
      f+2     :     0.000011
      f-2     :     0.000001
      f+3     :     0.000009
      f-3     :    -0.000001
      g0      :     0.000000  g :     0.000001
      g+1     :     0.000000
      g-1     :     0.000000
      g+2     :     0.000000
      g-2     :    -0.000000
      g+3     :     0.000000
      g-3     :    -0.000000
      g+4     :     0.000000
      g-4     :    -0.000000

  6 O s       :    -0.013780  s :    -0.013780
      pz      :     0.009466  p :     0.012068
      px      :    -0.002170
      py      :     0.004772
      dz2     :    -0.000035  d :     0.001261
      dxz     :    -0.000047
      dyz     :     0.001111
      dx2y2   :     0.000086
      dxy     :     0.000146
      f0      :    -0.000005  f :     0.000073
      f+1     :     0.000003
      f-1     :     0.000049
      f+2     :     0.000022
      f-2     :     0.000001
      f+3     :    -0.000002
      f-3     :     0.000005
      g0      :     0.000000  g :     0.000001
      g+1     :     0.000000
      g-1     :     0.000000
      g+2     :     0.000000
      g-2     :    -0.000000
      g+3     :    -0.000000
      g-3     :     0.000000
      g+4     :     0.000000
      g-4     :    -0.000000

  7 O s       :    -0.000497  s :    -0.000497
      pz      :     0.000863  p :     0.000587
      px      :    -0.000139
      py      :    -0.000137
      dz2     :     0.000111  d :     0.000110
      dxz     :    -0.000001
      dyz     :    -0.000001
      dx2y2   :    -0.000000
      dxy     :     0.000000
      f0      :     0.000003  f :     0.000003
      f+1     :     0.000000
      f-1     :     0.000000
      f+2     :    -0.000000
      f-2     :    -0.000000
      f+3     :     0.000000
      f-3     :     0.000000
      g0      :     0.000000  g :     0.000000
      g+1     :    -0.000000
      g-1     :    -0.000000
      g+2     :    -0.000000
      g-2     :    -0.000000
      g+3     :    -0.000000
      g-3     :    -0.000000
      g+4     :    -0.000000
      g-4     :     0.000000

  8 Mgs       :    -0.000050  s :    -0.000050
      pz      :     0.002094  p :     0.004179
      px      :     0.001006
      py      :     0.001079
      dz2     :    -0.000803  d :    -0.000876
      dxz     :    -0.000065
      dyz     :    -0.000056
      dx2y2   :     0.000175
      dxy     :    -0.000126
      f0      :     0.000003  f :    -0.000085
      f+1     :    -0.000038
      f-1     :    -0.000040
      f+2     :    -0.000004
      f-2     :    -0.000031
      f+3     :     0.000012
      f-3     :     0.000015
      g0      :     0.000000  g :    -0.000009
      g+1     :    -0.000001
      g-1     :    -0.000001
      g+2     :    -0.000000
      g-2     :    -0.000003
      g+3     :    -0.000002
      g-3     :    -0.000001
      g+4     :    -0.000001
      g-4     :     0.000001

  9 Mgs       :     0.000799  s :     0.000799
      pz      :     0.002140  p :     0.004446
      px      :     0.000736
      py      :     0.001570
      dz2     :    -0.000801  d :    -0.000833
      dxz     :    -0.000021
      dyz     :    -0.000120
      dx2y2   :     0.000205
      dxy     :    -0.000096
      f0      :     0.000004  f :    -0.000129
      f+1     :    -0.000054
      f-1     :    -0.000044
      f+2     :    -0.000008
      f-2     :    -0.000026
      f+3     :     0.000000
      f-3     :    -0.000001
      g0      :     0.000000  g :    -0.000009
      g+1     :    -0.000001
      g-1     :    -0.000001
      g+2     :    -0.000000
      g-2     :    -0.000004
      g+3     :    -0.000002
      g-3     :    -0.000001
      g+4     :    -0.000001
      g-4     :     0.000001

 10 Mgs       :    -0.000716  s :    -0.000716
      pz      :     0.002290  p :     0.003316
      px      :     0.000607
      py      :     0.000419
      dz2     :    -0.000792  d :    -0.000905
      dxz     :    -0.000020
      dyz     :    -0.000041
      dx2y2   :     0.000155
      dxy     :    -0.000207
      f0      :    -0.000003  f :    -0.000075
      f+1     :    -0.000045
      f-1     :    -0.000042
      f+2     :    -0.000003
      f-2     :    -0.000021
      f+3     :     0.000013
      f-3     :     0.000026
      g0      :     0.000000  g :    -0.000009
      g+1     :    -0.000001
      g-1     :    -0.000001
      g+2     :    -0.000000
      g-2     :    -0.000003
      g+3     :    -0.000001
      g-3     :    -0.000001
      g+4     :    -0.000002
      g-4     :     0.000001

 11 Mgs       :    -0.000394  s :    -0.000394
      pz      :     0.002223  p :     0.004098
      px      :     0.000660
      py      :     0.001216
      dz2     :    -0.000789  d :    -0.001018
      dxz     :    -0.000048
      dyz     :    -0.000027
      dx2y2   :     0.000160
      dxy     :    -0.000313
      f0      :    -0.000016  f :    -0.000130
      f+1     :    -0.000047
      f-1     :    -0.000045
      f+2     :    -0.000003
      f-2     :    -0.000009
      f+3     :    -0.000001
      f-3     :    -0.000009
      g0      :    -0.000000  g :    -0.000009
      g+1     :    -0.000001
      g-1     :    -0.000001
      g+2     :    -0.000000
      g-2     :    -0.000003
      g+3     :    -0.000002
      g-3     :    -0.000001
      g+4     :    -0.000002
      g-4     :     0.000001

 12 O s       :     0.000023  s :     0.000023
      pz      :     0.000163  p :     0.000075
      px      :    -0.000037
      py      :    -0.000050
      dz2     :     0.000001  d :     0.000000
      dxz     :    -0.000001
      dyz     :    -0.000000
      dx2y2   :     0.000000
      dxy     :    -0.000000
      f0      :     0.000000  f :    -0.000000
      f+1     :     0.000000
      f-1     :     0.000000
      f+2     :     0.000000
      f-2     :    -0.000000
      f+3     :    -0.000000
      f-3     :    -0.000000
      g0      :    -0.000000  g :    -0.000000
      g+1     :    -0.000000
      g-1     :     0.000000
      g+2     :    -0.000000
      g-2     :    -0.000000
      g+3     :    -0.000000
      g-3     :    -0.000000
      g+4     :    -0.000000
      g-4     :    -0.000000

 13 O s       :     0.000018  s :     0.000018
      pz      :     0.000150  p :     0.000062
      px      :    -0.000042
      py      :    -0.000046
      dz2     :     0.000001  d :    -0.000001
      dxz     :    -0.000001
      dyz     :    -0.000001
      dx2y2   :     0.000000
      dxy     :    -0.000000
      f0      :     0.000000  f :    -0.000000
      f+1     :    -0.000000
      f-1     :    -0.000000
      f+2     :    -0.000000
      f-2     :    -0.000000
      f+3     :    -0.000000
      f-3     :    -0.000000
      g0      :    -0.000000  g :    -0.000000
      g+1     :    -0.000000
      g-1     :    -0.000000
      g+2     :    -0.000000
      g-2     :    -0.000000
      g+3     :    -0.000000
      g-3     :    -0.000000
      g+4     :    -0.000000
      g-4     :    -0.000000

 14 O s       :     0.000017  s :     0.000017
      pz      :     0.000153  p :     0.000062
      px      :    -0.000043
      py      :    -0.000048
      dz2     :     0.000002  d :     0.000001
      dxz     :    -0.000001
      dyz     :    -0.000001
      dx2y2   :     0.000000
      dxy     :     0.000000
      f0      :     0.000000  f :    -0.000000
      f+1     :     0.000000
      f-1     :    -0.000000
      f+2     :     0.000000
      f-2     :    -0.000000
      f+3     :    -0.000000
      f-3     :    -0.000000
      g0      :    -0.000000  g :    -0.000000
      g+1     :     0.000000
      g-1     :     0.000000
      g+2     :    -0.000000
      g-2     :    -0.000000
      g+3     :    -0.000000
      g-3     :    -0.000000
      g+4     :    -0.000000
      g-4     :    -0.000000

 15 O s       :     0.000025  s :     0.000025
      pz      :     0.000173  p :     0.000080
      px      :    -0.000042
      py      :    -0.000052
      dz2     :     0.000002  d :     0.000002
      dxz     :    -0.000000
      dyz     :    -0.000000
      dx2y2   :     0.000000
      dxy     :     0.000001
      f0      :     0.000000  f :     0.000000
      f+1     :     0.000000
      f-1     :     0.000000
      f+2     :     0.000000
      f-2     :     0.000000
      f+3     :     0.000000
      f-3     :     0.000000
      g0      :    -0.000000  g :    -0.000000
      g+1     :    -0.000000
      g-1     :     0.000000
      g+2     :    -0.000000
      g-2     :    -0.000000
      g+3     :    -0.000000
      g-3     :    -0.000000
      g+4     :    -0.000000
      g-4     :    -0.000000

 16 Mgs       :     0.002491  s :     0.002491
      pz      :    -0.000073  p :     0.001095
      px      :     0.001364
      py      :    -0.000196
      dz2     :    -0.000005  d :    -0.000091
      dxz     :    -0.000060
      dyz     :     0.000000
      dx2y2   :    -0.000030
      dxy     :     0.000003
      f0      :     0.000006  f :     0.000027
      f+1     :     0.000011
      f-1     :    -0.000000
      f+2     :     0.000003
      f-2     :    -0.000000
      f+3     :     0.000005
      f-3     :     0.000003
      g0      :     0.000000  g :     0.000000
      g+1     :     0.000000
      g-1     :    -0.000000
      g+2     :    -0.000000
      g-2     :    -0.000000
      g+3     :    -0.000000
      g-3     :     0.000000
      g+4     :     0.000000
      g-4     :     0.000000

 17 Mgs       :     0.003757  s :     0.003757
      pz      :    -0.000223  p :     0.002003
      px      :    -0.000153
      py      :     0.002380
      dz2     :    -0.000019  d :    -0.000165
      dxz     :    -0.000001
      dyz     :    -0.000108
      dx2y2   :    -0.000044
      dxy     :     0.000008
      f0      :     0.000007  f :     0.000030
      f+1     :     0.000000
      f-1     :     0.000007
      f+2     :     0.000005
      f-2     :    -0.000001
      f+3     :     0.000004
      f-3     :     0.000008
      g0      :     0.000000  g :     0.000000
      g+1     :    -0.000000
      g-1     :     0.000000
      g+2     :    -0.000000
      g-2     :    -0.000000
      g+3     :     0.000000
      g-3     :    -0.000000
      g+4     :     0.000000
      g-4     :     0.000000

 18 Mgs       :     0.002979  s :     0.002979
      pz      :    -0.000138  p :     0.001322
      px      :     0.001663
      py      :    -0.000204
      dz2     :    -0.000015  d :    -0.000177
      dxz     :    -0.000059
      dyz     :     0.000001
      dx2y2   :    -0.000108
      dxy     :     0.000003
      f0      :     0.000006  f :     0.000028
      f+1     :     0.000009
      f-1     :    -0.000000
      f+2     :     0.000005
      f-2     :    -0.000000
      f+3     :     0.000005
      f-3     :     0.000004
      g0      :     0.000000  g :     0.000000
      g+1     :     0.000000
      g-1     :    -0.000000
      g+2     :    -0.000000
      g-2     :    -0.000000
      g+3     :     0.000000
      g-3     :     0.000000
      g+4     :     0.000000
      g-4     :     0.000000

 19 Mgs       :     0.002833  s :     0.002833
      pz      :    -0.000092  p :     0.001446
      px      :    -0.000157
      py      :     0.001695
      dz2     :    -0.000023  d :    -0.000205
      dxz     :     0.000000
      dyz     :    -0.000131
      dx2y2   :    -0.000056
      dxy     :     0.000004
      f0      :     0.000007  f :     0.000030
      f+1     :    -0.000000
      f-1     :     0.000011
      f+2     :     0.000003
      f-2     :    -0.000001
      f+3     :     0.000004
      f-3     :     0.000006
      g0      :    -0.000000  g :     0.000000
      g+1     :    -0.000000
      g-1     :     0.000000
      g+2     :    -0.000000
      g-2     :    -0.000000
      g+3     :     0.000000
      g-3     :    -0.000000
      g+4     :     0.000000
      g-4     :     0.000000

 20 O s       :     0.000012  s :     0.000012
      pz      :    -0.000017  p :     0.000005
      px      :     0.000019
      py      :     0.000004
      dz2     :     0.000000  d :     0.000002
      dxz     :    -0.000001
      dyz     :    -0.000001
      dx2y2   :    -0.000000
      dxy     :     0.000004
      f0      :    -0.000000  f :     0.000000
      f+1     :     0.000000
      f-1     :     0.000000
      f+2     :    -0.000000
      f-2     :     0.000000
      f+3     :    -0.000000
      f-3     :     0.000000
      g0      :    -0.000000  g :    -0.000000
      g+1     :    -0.000000
      g-1     :    -0.000000
      g+2     :    -0.000000
      g-2     :    -0.000000
      g+3     :    -0.000000
      g-3     :    -0.000000
      g+4     :     0.000000
      g-4     :    -0.000000

 21 O s       :    -0.000016  s :    -0.000016
      pz      :    -0.000017  p :    -0.000001
      px      :    -0.000019
      py      :     0.000034
      dz2     :     0.000001  d :     0.000003
      dxz     :    -0.000001
      dyz     :    -0.000001
      dx2y2   :     0.000000
      dxy     :     0.000004
      f0      :    -0.000000  f :    -0.000000
      f+1     :     0.000000
      f-1     :     0.000000
      f+2     :    -0.000000
      f-2     :     0.000000
      f+3     :     0.000000
      f-3     :    -0.000000
      g0      :    -0.000000  g :    -0.000000
      g+1     :    -0.000000
      g-1     :    -0.000000
      g+2     :    -0.000000
      g-2     :    -0.000000
      g+3     :     0.000000
      g-3     :    -0.000000
      g+4     :     0.000000
      g-4     :    -0.000000

 22 O s       :     0.000006  s :     0.000006
      pz      :    -0.000015  p :    -0.000007
      px      :     0.000009
      py      :    -0.000001
      dz2     :     0.000001  d :     0.000005
      dxz     :    -0.000000
      dyz     :    -0.000001
      dx2y2   :     0.000000
      dxy     :     0.000005
      f0      :    -0.000000  f :     0.000000
      f+1     :     0.000000
      f-1     :     0.000000
      f+2     :    -0.000000
      f-2     :     0.000000
      f+3     :     0.000000
      f-3     :    -0.000000
      g0      :    -0.000000  g :    -0.000000
      g+1     :    -0.000000
      g-1     :    -0.000000
      g+2     :    -0.000000
      g-2     :    -0.000000
      g+3     :    -0.000000
      g-3     :    -0.000000
      g+4     :     0.000000
      g-4     :     0.000000

 23 O s       :    -0.000011  s :    -0.000011
      pz      :    -0.000018  p :    -0.000006
      px      :     0.000025
      py      :    -0.000014
      dz2     :     0.000000  d :     0.000005
      dxz     :    -0.000001
      dyz     :    -0.000001
      dx2y2   :     0.000001
      dxy     :     0.000005
      f0      :    -0.000000  f :     0.000000
      f+1     :     0.000000
      f-1     :     0.000000
      f+2     :    -0.000000
      f-2     :     0.000000
      f+3     :    -0.000000
      f-3     :     0.000000
      g0      :    -0.000000  g :    -0.000000
      g+1     :     0.000000
      g-1     :    -0.000000
      g+2     :    -0.000000
      g-2     :    -0.000000
      g+3     :    -0.000000
      g-3     :    -0.000000
      g+4     :     0.000000
      g-4     :    -0.000000

 24 O s       :    -0.000026  s :    -0.000026
      pz      :    -0.000020  p :    -0.000036
      px      :     0.000004
      py      :    -0.000019
      dz2     :     0.000000  d :     0.000003
      dxz     :    -0.000001
      dyz     :    -0.000001
      dx2y2   :     0.000000
      dxy     :     0.000004
      f0      :    -0.000000  f :     0.000000
      f+1     :     0.000000
      f-1     :     0.000000
      f+2     :     0.000000
      f-2     :     0.000000
      f+3     :    -0.000000
      f-3     :     0.000000
      g0      :    -0.000000  g :    -0.000000
      g+1     :    -0.000000
      g-1     :    -0.000000
      g+2     :    -0.000000
      g-2     :    -0.000000
      g+3     :    -0.000000
      g-3     :     0.000000
      g+4     :     0.000000
      g-4     :    -0.000000

 25 O s       :    -0.000043  s :    -0.000043
      pz      :    -0.000018  p :    -0.000055
      px      :    -0.000003
      py      :    -0.000034
      dz2     :     0.000001  d :     0.000005
      dxz     :    -0.000001
      dyz     :    -0.000000
      dx2y2   :     0.000001
      dxy     :     0.000005
      f0      :    -0.000000  f :     0.000000
      f+1     :     0.000000
      f-1     :     0.000000
      f+2     :     0.000000
      f-2     :     0.000000
      f+3     :     0.000000
      f-3     :    -0.000000
      g0      :    -0.000000  g :    -0.000000
      g+1     :    -0.000000
      g-1     :    -0.000000
      g+2     :    -0.000000
      g-2     :    -0.000000
      g+3     :     0.000000
      g-3     :    -0.000000
      g+4     :     0.000000
      g-4     :     0.000000

 26 O s       :    -0.000010  s :    -0.000010
      pz      :    -0.000016  p :    -0.000029
      px      :     0.000007
      py      :    -0.000020
      dz2     :     0.000001  d :     0.000005
      dxz     :    -0.000001
      dyz     :     0.000000
      dx2y2   :    -0.000000
      dxy     :     0.000005
      f0      :    -0.000000  f :     0.000000
      f+1     :     0.000000
      f-1     :     0.000000
      f+2     :     0.000000
      f-2     :     0.000000
      f+3     :     0.000000
      f-3     :    -0.000000
      g0      :    -0.000000  g :    -0.000000
      g+1     :    -0.000000
      g-1     :    -0.000000
      g+2     :    -0.000000
      g-2     :    -0.000000
      g+3     :    -0.000000
      g-3     :    -0.000000
      g+4     :     0.000000
      g-4     :    -0.000000

 27 O s       :    -0.000023  s :    -0.000023
      pz      :    -0.000017  p :    -0.000042
      px      :    -0.000006
      py      :    -0.000019
      dz2     :     0.000000  d :     0.000005
      dxz     :    -0.000000
      dyz     :    -0.000000
      dx2y2   :     0.000000
      dxy     :     0.000005
      f0      :    -0.000000  f :     0.000000
      f+1     :     0.000000
      f-1     :     0.000000
      f+2     :     0.000000
      f-2     :     0.000000
      f+3     :    -0.000000
      f-3     :     0.000000
      g0      :    -0.000000  g :    -0.000000
      g+1     :     0.000000
      g-1     :    -0.000000
      g+2     :    -0.000000
      g-2     :    -0.000000
      g+3     :    -0.000000
      g-3     :     0.000000
      g+4     :     0.000000
      g-4     :    -0.000000

 28 O s       :     0.000003  s :     0.000003
      pz      :     0.000008  p :     0.000010
      px      :     0.000002
      py      :    -0.000000
      dz2     :    -0.000000  d :    -0.000001
      dxz     :    -0.000001
      dyz     :     0.000000
      dx2y2   :    -0.000000
      dxy     :    -0.000000
      f0      :    -0.000000  f :    -0.000000
      f+1     :    -0.000000
      f-1     :    -0.000000
[...]
      g0      :     0.000000  g :     0.000000
      g+1     :     0.000000
      g-1     :     0.000000
      g+2     :     0.000000
      g-2     :     0.000000
      g+3     :     0.000000
      g-3     :     0.000000
      g+4     :     0.000000
      g-4     :     0.000000

 32 O s       :     0.000014  s :     0.000014
      pz      :     0.000004  p :     0.000006
      px      :     0.000002
      py      :     0.000000
      dz2     :     0.000000  d :     0.000000
      dxz     :     0.000000
      dyz     :     0.000000
      dx2y2   :     0.000000
      dxy     :     0.000000
      f0      :     0.000000  f :     0.000000
      f+1     :     0.000000
      f-1     :     0.000000
      f+2     :     0.000000
      f-2     :     0.000000
      f+3     :     0.000000
      f-3     :     0.000000
      g0      :     0.000000  g :     0.000000
      g+1     :     0.000000
      g-1     :     0.000000
      g+2     :     0.000000
      g-2     :     0.000000
      g+3     :     0.000000
      g-3     :     0.000000
      g+4     :     0.000000
      g-4     :     0.000000

 33 O s       :     0.000015  s :     0.000015
      pz      :     0.000004  p :     0.000006
      px      :     0.000000
      py      :     0.000002
      dz2     :     0.000000  d :     0.000000
      dxz     :     0.000000
      dyz     :     0.000000
      dx2y2   :     0.000000
      dxy     :     0.000000
      f0      :     0.000000  f :     0.000000
      f+1     :     0.000000
      f-1     :     0.000000
      f+2     :     0.000000
      f-2     :     0.000000
      f+3     :     0.000000
      f-3     :     0.000000
      g0      :     0.000000  g :     0.000000
      g+1     :     0.000000
      g-1     :     0.000000
      g+2     :     0.000000
      g-2     :     0.000000
      g+3     :     0.000000
      g-3     :     0.000000
      g+4     :     0.000000
      g-4     :     0.000000

 34 O s       :     0.000015  s :     0.000015
      pz      :     0.000004  p :     0.000006
      px      :     0.000002
      py      :     0.000000
      dz2     :     0.000000  d :     0.000000
      dxz     :     0.000000
      dyz     :     0.000000
      dx2y2   :     0.000000
      dxy     :     0.000000
      f0      :     0.000000  f :     0.000000
      f+1     :     0.000000
      f-1     :     0.000000
      f+2     :     0.000000
      f-2     :     0.000000
      f+3     :     0.000000
      f-3     :     0.000000
      g0      :     0.000000  g :     0.000000
      g+1     :     0.000000
      g-1     :     0.000000
      g+2     :     0.000000
      g-2     :     0.000000
      g+3     :     0.000000
      g-3     :     0.000000
      g+4     :     0.000000
      g-4     :     0.000000

 35 O s       :     0.000014  s :     0.000014
      pz      :     0.000004  p :     0.000006
      px      :     0.000000
      py      :     0.000002
      dz2     :     0.000000  d :     0.000000
      dxz     :     0.000000
      dyz     :     0.000000
      dx2y2   :     0.000000
      dxy     :     0.000000
      f0      :     0.000000  f :     0.000000
      f+1     :     0.000000
      f-1     :     0.000000
      f+2     :     0.000000
      f-2     :     0.000000
      f+3     :     0.000000
      f-3     :     0.000000
      g0      :     0.000000  g :     0.000000
      g+1     :     0.000000
      g-1     :     0.000000
      g+2     :     0.000000
      g-2     :     0.000000
      g+3     :     0.000000
      g-3     :     0.000000
      g+4     :     0.000000
      g-4     :     0.000000



                      *****************************
                      * MAYER POPULATION ANALYSIS *
                      *****************************

  NA   - Mulliken gross atomic population
  ZA   - Total nuclear charge
  QA   - Mulliken gross atomic charge
  VA   - Mayer's total valence
  BVA  - Mayer's bonded valence
  FA   - Mayer's free valence

  ATOM       NA         ZA         QA         VA         BVA        FA
  0 C      5.0486     6.0000     0.9514     1.6926     1.6926    -0.0000
  1 O      8.8504     8.0000    -0.8504     1.7156     1.7156    -0.0000
  2 Mg     0.0816     0.0000    -0.0816     0.1617     0.1617     0.0000
  3 O     -0.0047     0.0000     0.0047    -0.0092    -0.0092     0.0000
  4 O     -0.0017     0.0000     0.0017    -0.0032    -0.0032     0.0000
  5 O     -0.0032     0.0000     0.0032    -0.0062    -0.0062     0.0000
  6 O     -0.0004     0.0000     0.0004    -0.0006    -0.0006     0.0000
  7 O      0.0002     0.0000    -0.0002     0.0004     0.0004     0.0000
  8 Mg     0.0032     0.0000    -0.0032     0.0063     0.0063    -0.0000
  9 Mg     0.0043     0.0000    -0.0043     0.0085     0.0085    -0.0000
 10 Mg     0.0016     0.0000    -0.0016     0.0032     0.0032    -0.0000
 11 Mg     0.0025     0.0000    -0.0025     0.0051     0.0051    -0.0000
 12 O      0.0001     0.0000    -0.0001     0.0002     0.0002     0.0000
 13 O      0.0001     0.0000    -0.0001     0.0002     0.0002     0.0000
 14 O      0.0001     0.0000    -0.0001     0.0002     0.0002     0.0000
 15 O      0.0001     0.0000    -0.0001     0.0002     0.0002     0.0000
 16 Mg     0.0035     0.0000    -0.0035     0.0070     0.0070    -0.0000
 17 Mg     0.0056     0.0000    -0.0056     0.0112     0.0112    -0.0000
 18 Mg     0.0042     0.0000    -0.0042     0.0083     0.0083     0.0000
 19 Mg     0.0041     0.0000    -0.0041     0.0082     0.0082     0.0000
 20 O      0.0000     0.0000    -0.0000     0.0000     0.0000    -0.0000
 21 O     -0.0000     0.0000     0.0000    -0.0000    -0.0000    -0.0000
 22 O      0.0000     0.0000    -0.0000     0.0000     0.0000     0.0000
 23 O     -0.0000     0.0000     0.0000    -0.0000    -0.0000    -0.0000
 24 O     -0.0001     0.0000     0.0001    -0.0001    -0.0001     0.0000
 25 O     -0.0001     0.0000     0.0001    -0.0002    -0.0002     0.0000
 26 O     -0.0000     0.0000     0.0000    -0.0001    -0.0001     0.0000
 27 O     -0.0001     0.0000     0.0001    -0.0001    -0.0001     0.0000
 28 O      0.0000     0.0000    -0.0000     0.0000     0.0000    -0.0000
 29 O      0.0000     0.0000    -0.0000     0.0000     0.0000    -0.0000
 30 O      0.0000     0.0000    -0.0000     0.0000     0.0000    -0.0000
 31 O     -0.0000     0.0000     0.0000    -0.0000    -0.0000     0.0000
 32 O      0.0000     0.0000    -0.0000     0.0000     0.0000     0.0000
 33 O      0.0000     0.0000    -0.0000     0.0000     0.0000     0.0000
 34 O      0.0000     0.0000    -0.0000     0.0000     0.0000     0.0000
 35 O      0.0000     0.0000    -0.0000     0.0000     0.0000    -0.0000

  Mayer bond orders larger than 0.100000
B(  0-C ,  1-O ) :   1.6050 B(  0-C ,  2-Mg) :   0.1101

-------
TIMINGS
-------

Total SCF time: 0 days 0 hours 20 min 59 sec

Total time                  ....    1259.226 sec
Sum of individual times     ....    1263.106 sec  (100.3%)

SCF preparation             ....       3.815 sec  (  0.3%)
Fock matrix formation       ....    1182.379 sec  ( 93.9%)
  Startup                   ....       0.969 sec  (  0.1% of F)
  Split-RI-J                ....      82.129 sec  (  6.9% of F)
  Chain of spheres X        ....    1097.847 sec  ( 92.9% of F)
Diagonalization             ....       0.000 sec  (  0.0%)
Density matrix formation    ....       4.113 sec  (  0.3%)
Total Energy calculation    ....       2.059 sec  (  0.2%)
Population analysis         ....       4.004 sec  (  0.3%)
Orbital Transformation      ....      11.628 sec  (  0.9%)
Orbital Orthonormalization  ....       0.000 sec  (  0.0%)
DIIS solution               ....      39.541 sec  (  3.1%)
SOSCF solution              ....      15.389 sec  (  1.2%)
Finished LeanSCF after 1259.9 sec

Maximum memory used throughout the entire LEANSCF-calculation: 1107.8 MB


           ************************************************************
           *        Program running with 8 parallel MPI-processes     *
           *              working on a common directory               *
           ************************************************************

------------------------------------------------------------------------------
                                ORCA  MP2
------------------------------------------------------------------------------

NOTE: Switching SHARK to Segmented Contraction for MP2
      If that is not desired please turn off the PGCFlag in the input (%shark PGCFlag 0 end)
      Number of basis functions in BAS before restore: 3609
      Number of basis functions in BAS after restore : 3141
Freezing NCore=4 chemical core electrons

-------------
RI-MP2 ENERGY
-------------
Dimension of the orbital basis            ... 3141
Dimension of the AuxC basis               ... 7794
Memory devoted to MP2                     ... 25000 MB
Data format for matrix containers         ... DOUBLE
Compression type for matrix containers    ... UNCOMPRESSED

-----------------------
SHARK RI TRANSFORMATION
-----------------------

Number of basis functions                ...   3141
Number of aux functions                  ...   7794
Number of operators                      ...      1
Generation of IJK                        ... NO
Generation of IAK                        ... YES
Generation of ABK                        ... NO
Orbital Range Operator  0:    2-   6 to    7-3140

Aux basis identifier                     ...   AUXC
Contraction scheme used                  ... SEGMENTED
Do orthogonalization                     ... YES
All operator combinations                ... NO
Transpose (ia|K)                         ... NO
Integral generator used                  ... LIBINT
Starting integral generation + trafo...
Half trafo (segmented) done. Total time =266.4 sec. integrals= 89.8 sec trafo=161.3 sec
Integral generation and half transformation done (266.4 sec)

Reading or making V^(-1/2)          ... done (  1.8 sec)
Sorting IAK integrals               ... done ( 11.8 sec)

SHARK RI integral transformation done. Total time =280.1 sec.

Opening buffers                              ... done

Starting loop over batches of integrals:

Operator 0  - window                       ... (  2-  6)x(  7-3140)
Operator 0  - Memory available             ... 25000 MB
Operator 0  - Memory needed per MO         ... 186.4 MB
Operator 0  - Number of orbitals per batch ... 1
Operator 0  - Number of batches            ... 1

OPERATOR  0   PASS   0:  MOs     2 ...    2 +    3 ...    3 +    4 ...    4 +    5 ...    5
                            +    6 ...    6
  Reading integrals       ... ok
Time spent in pair loops =    22.775 sec
Deleting buffers (Ka|jb) ...done

-----------------------------------------------
 RI-MP2 CORRELATION ENERGY:     -0.387309546 Eh
-----------------------------------------------


-------
TIMINGS
-------

Total time                :  337.728 sec
Integral trafo            :  280.121 sec ( 82.9%)
I/O of integrals          :    0.112 sec (  0.0%)
K(i,j) operators          :    4.190 sec (  1.2%)
T(i,j) pair energies      :    0.137 sec (  0.0%)
V**(-1/2)                 :   34.832 sec ( 10.3%)


---------------------------------------
MP2 TOTAL ENERGY:     -113.173249745 Eh
---------------------------------------

Maximum memory used throughout the entire MP2-calculation: 1418.9 MB

-------------------------   --------------------
FINAL SINGLE POINT ENERGY      -113.173249745350
-------------------------   --------------------



           ************************************************************
           *        Program running with 8 parallel MPI-processes     *
           *              working on a common directory               *
           ************************************************************

------------------------------------------------------------------------------
                              ORCA PROPERTY CALCULATIONS
------------------------------------------------------------------------------

GBWName                                 ... orca.gbw
Number of atoms                         ...     36
Number of basis functions               ...   3609
Max core memory                         ...  25000 MB

Electric properties:
Dipole moment                           ... YES
Quadrupole moment                       ...  NO
Static polarizability (Dipole/Dipole)   ...  NO
Static polarizability (Dipole/Quad.)    ...  NO
Static polarizability (Quad./Quad.)     ...  NO
Static polarizability (Velocity)        ...  NO

Atomic electric properties:
Dipole moment                           ...  NO
Quadrupole moment                       ...  NO
Static polarizability                   ...  NO

Choice of electric origin               ... Center of mass
Position of electric origin             ...     0.000000     0.000000     5.850730

General magnetic properties:
Magnetizability                         ...  NO

EPR properties:
g-Tensor (aka g-matrix)                 ...  NO
Zero-Field splitting spin-orbit         ...  NO
Zero-field splitting spin-spin          ...  NO
Hyperfine couplings                     ...  NO (   0 nuclei)
Quadrupole couplings                    ...  NO (   0 nuclei)
Contact density                         ...  NO (   0 nuclei)

NMR properties:
Chemical shifts                         ...  NO (   0 nuclei)
Spin-rotation constants                 ...  NO (   0 nuclei)
Spin-spin couplings                     ...  NO (   0 nuclei,    0 pairs)

Choice of magnetic origin               ... GIAO
Position of magnetic origin             ...     0.000000     0.000000     0.000000

Properties with geometric perturbations:
SCF Hessian                             ...  NO
IR spectrum                             ...  NO
VCD spectrum                            ...  NO
X-ray spectroscopy properties:
SCF XES/XAS/RIXS spectra                ...  NO


-------------
DIPOLE MOMENT
-------------

Method             : SCF
Type of density    : Electron Density
Multiplicity       :   1
Irrep              :   0
Energy             :  -112.7859401994581248 Eh
Relativity type    :
Basis              : AO
                                X                 Y                 Z
Electronic contribution:      0.000000222      -0.000000059      -0.147900913
Nuclear contribution   :      0.000000000       0.000000000       0.007272920
                        -----------------------------------------
Total Dipole Moment    :      0.000000222      -0.000000059      -0.140627993
                        -----------------------------------------
Magnitude (a.u.)       :      0.140627993
Magnitude (Debye)      :      0.357447951



--------------------
Rotational spectrum
--------------------

Rotational constants in cm-1:             0.000000             1.868304             1.868304
Rotational constants in MHz :             0.000000         56010.355777         56010.355777

Dipole components along the rotational axes:
x,y,z [a.u.] :    -0.140628    -0.000000     0.000000
x,y,z [Debye]:    -0.357448    -0.000000     0.000001



Dipole moment calculation done in   0.4 sec

Maximum memory used throughout the entire PROP-calculation: 742.0 MB

--------------------------------
SUGGESTED CITATIONS FOR THIS RUN
--------------------------------

Below you find a list of papers that are relevant to this ORCA run
We neither can nor want to force you to cite these papers, but we appreciate if you do
You receive ORCA, which is the product of decades of hard work by many enthusiastic individuals, for free
The only thing we kindly ask in return is that you cite our papers,
We deeply appreciate it, if you show your appreciation for ORCA by not just citing the generic ORCA reference.

Please note that relegating all ORCA citations to the supporting information does *not* help us.
SI sections are not indexed - citations you put there will not count into any citation statistics
But we need these citations in order to attract the funding resources that allow us to do what we are doing

Therefore, if you are a happy ORCA user, please consider citing a few of the papers listed below in the main body of your paper

In addition to the list printed below, the program has created the file orca.bibtex that contains the list in bibtex format
You can import this file easily into all common literature databanks and citation aid programs


List of essential papers. We consider these as the minimum necessary citations

  1. Neese,F.
     Software update: the ORCA program system, version 5.0
     WIRES Comput. Molec. Sci., 2022 12(1)e1606
     doi.org/10.1002/wcms.1606

List of papers to cite with high priority. The work reported in these papers was absolutely
necessary for this run to complete.
Our perspective: the developers of density functionals and basis sets usually get cited in chemistry papers
Good! But without the algorithms to do something with them, the functionals or basis sets would not do anything.
Hence, in our opinion, the algorithm design and method developments papers are equally worthy of getting cited

  1. Neese,F.
     An improvement of the resolution of the identity approximation for the formation of the Coulomb matrix
     J. Comp. Chem., 2003 24(14)1740-1747
     doi.org/10.1002/jcc.10318
  2. Neese,F.; Wennmohs,F.; Hansen,A.; Becker,U.
     Efficient, approximate and parallel Hartree-Fock and hybrid DFT calculations. A 'chain-of-spheres' algorithm for the Hartree-Fock exchange
     Chem. Phys., 2009 356(1-3)98-109
     doi.org/10.1016/j.chemphys.2008.10.036
  3. Kossmann,S.; Neese,F.
     Efficient Structure Optimization with Second-Order Many-Body Perturbation Theory: The RIJCOSX-MP2 Method
     J. Theo. Comp. Chem., 2010 6 2325-2338
     doi.org/10.1021/ct100199k
  4. Helmich-Paris,B.; de Souza,B.; Neese,F.; Izsák,R.
     An improved chain of spheres for exchange algorithm
     J. Chem. Phys., 2021 155 104109
     doi.org/doi: 10.1063/5.0058766.
  5. Neese,F.
     The SHARK Integral Generation and Digestion System
     J. Comp. Chem., 2022  1-16
     doi.org/10.1002/jcc.26942

List of suggested additional citations. These are papers that are important in the 'surrounding' of
of this run, or papers that preceded the highly important papers. If you like your results we are grateful for a citation.

  1. Izsak,R.; Neese,F.
     An overlap fitted chain of spheres exchange method
     J. Chem. Phys., 2011 135 144105
     doi.org/10.1063/1.3646921
  2. Izsak,R.; Hansen,A.; Neese,F.
     The resolution of identity and chain of spheres approximations for the LPNO-CCSD singles Fock term
     Molec. Phys., 2012 110 2413-2417
     doi.org/10.1080/00268976.2012.687466
  3. Neese,F.
     The ORCA program system
     WIRES Comput. Molec. Sci., 2012 2(1)73-78
     doi.org/10.1002/wcms.81
  4. Izsak,R.; Neese,F.; Klopper,W.
     Robust fitting techniques in the chain of spheres approximation to the Fock exchange: The role of the complementary space
     J. Chem. Phys., 2013 139
     doi.org/10.1063/1.4819264
  5. Neese,F.
     Software update: the ORCA program system, version 4.0
     WIRES Comput. Molec. Sci., 2018 8(1)1-6
     doi.org/10.1002/wcms.1327
  6. Neese,F.; Wennmohs,F.; Becker,U.; Riplinger,C.
     The ORCA quantum chemistry program package
     J. Chem. Phys., 2020 152 Art. No. L224108
     doi.org/10.1063/5.0004608

List of optional additional citations

  1. Neese,F.
     Approximate second-order SCF convergence for spin unrestricted wavefunctions
     Chem. Phys. Lett., 2000 325(1-3)93-98
     doi.org/10.1016/s0009-2614(00)00662-x

Timings for individual modules:

Sum of individual times          ...     1696.710 sec (=  28.279 min)
Startup calculation              ...       57.071 sec (=   0.951 min)   3.4 %
SCF iterations                   ...     1277.667 sec (=  21.294 min)  75.3 %
Property calculations            ...        6.695 sec (=   0.112 min)   0.4 %
MP2 module                       ...      355.277 sec (=   5.921 min)  20.9 %
                             ****ORCA TERMINATED NORMALLY****
TOTAL RUN TIME: 0 days 0 hours 28 minutes 18 seconds 780 msec
