 vasp.6.3.0 20Jan22 (build Mar 11 2022 13:48:16) complex

 executed on             LinuxIFC date 2023.12.26  18:05:37
 running on  304 total cores
 distrk:  each k-point on  304 cores,    1 groups
 distr:  one band on NCORE=   2 cores,  152 groups


--------------------------------------------------------------------------------------------------------


 INCAR:
   SYSTEM = MgO-rocksalt
   ISMEAR = 0
   SIGMA = 0.05
   EDIFF = 1E-6
   ALGO = ALL
   ISTART = 0
   IBRION = -1
   NSW = 0
   ISYM = 2
   ISIF = 2
   EDIFFG = -0.01
   DIPOL = 0.5 0.5 0.5
   IDIPOL = 3
   LDIPOL = .TRUE.
   GGA = RE
   LUSE_VDW = .TRUE.
   AGGAC = 0.0
   ENCUT = 600
   PREC = Accurate
   LASPH = .TRUE.
   LREAL = .FALSE.
   ISPIN = 1
   NELM = 200
   NELMIN = 8
   NCORE = 2
   KPAR = 1
   LWAVE = .FALSE.
   LCHARG = .FALSE.

 POTCAR:    PAW_PBE C 08Apr2002
 POTCAR:    PAW_PBE O 08Apr2002
 POTCAR:    PAW_PBE Mg_pv 13Apr2007
 POTCAR:    PAW_PBE O 08Apr2002
 -----------------------------------------------------------------------------
|                                                                             |
|           W    W    AA    RRRRR   N    N  II  N    N   GGGG   !!!           |
|           W    W   A  A   R    R  NN   N  II  NN   N  G    G  !!!           |
|           W    W  A    A  R    R  N N  N  II  N N  N  G       !!!           |
|           W WW W  AAAAAA  RRRRR   N  N N  II  N  N N  G  GGG   !            |
|           WW  WW  A    A  R   R   N   NN  II  N   NN  G    G                |
|           W    W  A    A  R    R  N    N  II  N    N   GGGG   !!!           |
|                                                                             |
|     For optimal performance we recommend to set                             |
|       NCORE = 2 up to number-of-cores-per-socket                            |
|     NCORE specifies how many cores store one orbital (NPAR=cpu/NCORE).      |
|     This setting can greatly improve the performance of VASP for DFT.       |
|     The default, NCORE=1 might be grossly inefficient on modern             |
|     multi-core architectures or massively parallel machines. Do your        |
|     own testing! More info at https://www.vasp.at/wiki/index.php/NCORE      |
|     Unfortunately you need to use the default for GW and RPA                |
|     calculations (for HF NCORE is supported but not extensively tested      |
|     yet).                                                                   |
|                                                                             |
 -----------------------------------------------------------------------------

 -----------------------------------------------------------------------------
|                                                                             |
|               ----> ADVICE to this user running VASP <----                  |
|                                                                             |
|     You have switched on vdW-DFT.                                           |
|     This routine was written and supplied by Jiri Klimes. We recommend      |
|     that you carefully read and cite the following publications:            |
|       J. Klimes, D.R. Bowler, A. Michelides                                 |
|          J. Phys.: Cond Matt. 22 022201 (2010)                              |
|       J. Klimes, D.R. Bowler, A. Michelides                                 |
|          Phys. Rev. B. 83, 195131 (2011)                                    |
|     and references therein.                                                 |
|                                                                             |
 -----------------------------------------------------------------------------

 POTCAR:    PAW_PBE C 08Apr2002
   SHA256 =  253f7b50bb8d59471dbedb8285d89021f4a42ed1a2c5d38a03a736e69125dd95 C/POTCAR
   COPYR  = (c) Copyright 08Apr2002 Georg Kresse
   COPYR  = This file is part of the software VASP. Any use, copying, and all other rights are regul
   COPYR  = If you do not have a valid VASP license, you may not use, copy or distribute this file.
   VRHFIN =C: s2p2
   LEXCH  = PE
   EATOM  =   147.1560 eV,   10.8157 Ry

   TITEL  = PAW_PBE C 08Apr2002
   LULTRA =        F    use ultrasoft PP ?
   IUNSCR =        1    unscreen: 0-lin 1-nonlin 2-no
   RPACOR =    1.200    partial core radius
   POMASS =   12.011; ZVAL   =    4.000    mass and valenz
   RCORE  =    1.500    outmost cutoff radius
   RWIGS  =    1.630; RWIGS  =    0.863    wigner-seitz radius (au A)
   ENMAX  =  400.000; ENMIN  =  300.000 eV
   ICORE  =        2    local potential
   LCOR   =        T    correct aug charges
   LPAW   =        T    paw PP
   EAUG   =  644.873
   DEXC   =    0.000
   RMAX   =    1.529    core radius for proj-oper
   RAUG   =    1.300    factor for augmentation sphere
   RDEP   =    1.501    radius for radial grids
   RDEPT  =    1.300    core radius for aug-charge

   Atomic configuration
    4 entries
     n  l   j            E        occ.
     1  0  0.50      -273.3789   2.0000
     2  0  0.50       -13.7508   2.0000
     2  1  0.50        -5.2854   2.0000
     3  2  1.50        -5.4423   0.0000
   Description
     l       E           TYP  RCUT    TYP  RCUT
     0    -13.7508458     23  1.200
     0     -8.2022199     23  1.200
     1     -5.2854383     23  1.500
     1     34.0145650     23  1.500
     2     -5.4423304      7  1.500
  local pseudopotential read in
  partial core-charges read in
  partial kinetic energy density read in
  atomic valenz-charges read in
  non local Contribution for L=           0  read in
    real space projection operators read in
  non local Contribution for L=           0  read in
    real space projection operators read in
  non local Contribution for L=           1  read in
    real space projection operators read in
  non local Contribution for L=           1  read in
    real space projection operators read in
    PAW grid and wavefunctions read in

   number of l-projection  operators is LMAX  =           4
   number of lm-projection operators is LMMAX =           8

 POTCAR:    PAW_PBE O 08Apr2002
   SHA256 =  818f92134a0a090dccd8ba1447fa70422a3b330e708bb4f08108d8ae51209ddf O/POTCAR
   COPYR  = (c) Copyright 08Apr2002 Georg Kresse
   COPYR  = This file is part of the software VASP. Any use, copying, and all other rights are regul
   COPYR  = If you do not have a valid VASP license, you may not use, copy or distribute this file.
   VRHFIN =O: s2p4
   LEXCH  = PE
   EATOM  =   432.3788 eV,   31.7789 Ry

   TITEL  = PAW_PBE O 08Apr2002
   LULTRA =        F    use ultrasoft PP ?
   IUNSCR =        1    unscreen: 0-lin 1-nonlin 2-no
   RPACOR =    1.200    partial core radius
   POMASS =   16.000; ZVAL   =    6.000    mass and valenz
   RCORE  =    1.520    outmost cutoff radius
   RWIGS  =    1.550; RWIGS  =    0.820    wigner-seitz radius (au A)
   ENMAX  =  400.000; ENMIN  =  300.000 eV
   ICORE  =        2    local potential
   LCOR   =        T    correct aug charges
   LPAW   =        T    paw PP
   EAUG   =  605.392
   DEXC   =    0.000
   RMAX   =    1.553    core radius for proj-oper
   RAUG   =    1.300    factor for augmentation sphere
   RDEP   =    1.550    radius for radial grids
   RDEPT  =    1.329    core radius for aug-charge

   Atomic configuration
    4 entries
     n  l   j            E        occ.
     1  0  0.50      -514.6923   2.0000
     2  0  0.50       -23.9615   2.0000
     2  1  0.50        -9.0305   4.0000
     3  2  1.50        -9.5241   0.0000
   Description
     l       E           TYP  RCUT    TYP  RCUT
     0    -23.9615318     23  1.200
     0     -9.5240782     23  1.200
     1     -9.0304911     23  1.520
     1      8.1634956     23  1.520
     2     -9.5240782      7  1.500
  local pseudopotential read in
  partial core-charges read in
  partial kinetic energy density read in
  kinetic energy density of atom read in
  atomic valenz-charges read in
  non local Contribution for L=           0  read in
    real space projection operators read in
  non local Contribution for L=           0  read in
    real space projection operators read in
  non local Contribution for L=           1  read in
    real space projection operators read in
  non local Contribution for L=           1  read in
    real space projection operators read in
    PAW grid and wavefunctions read in

   number of l-projection  operators is LMAX  =           4
   number of lm-projection operators is LMMAX =           8

 POTCAR:    PAW_PBE Mg_pv 13Apr2007
   SHA256 =  f474ac0dd33840b9ae76c01d57fea79fdf77cdfbb07d5ade72c65f83c709b62b Mg_pv/POTCAR
   COPYR  = (c) Copyright 13Apr2007 Georg Kresse
   COPYR  = This file is part of the software VASP. Any use, copying, and all other rights are regul
   COPYR  = If you do not have a valid VASP license, you may not use, copy or distribute this file.
   VRHFIN =Mg: p6s2
   LEXCH  = PE
   EATOM  =  1056.7344 eV,   77.6678 Ry

   TITEL  = PAW_PBE Mg_pv 13Apr2007
   LULTRA =        F    use ultrasoft PP ?
   IUNSCR =        1    unscreen: 0-lin 1-nonlin 2-no
   RPACOR =    1.500    partial core radius
   POMASS =   24.305; ZVAL   =    8.000    mass and valenz
   RCORE  =    2.000    outmost cutoff radius
   RWIGS  =    2.000; RWIGS  =    1.058    wigner-seitz radius (au A)
   ENMAX  =  403.929; ENMIN  =  302.947 eV
   RCLOC  =    1.506    cutoff for local pot
   LCOR   =        T    correct aug charges
   LPAW   =        T    paw PP
   EAUG   =  758.780
   DEXC   =    0.000
   RMAX   =    2.045    core radius for proj-oper
   RAUG   =    1.300    factor for augmentation sphere
   RDEP   =    2.025    radius for radial grids
   RDEPT  =    1.557    core radius for aug-charge

   Atomic configuration
    5 entries
     n  l   j            E        occ.
     1  0  0.50     -1259.6230   2.0000
     2  0  0.50       -79.8442   2.0000
     2  1  1.50       -46.6121   6.0000
     3  0  0.50        -4.7055   2.0000
     3  2  1.50        -1.3606   0.0000
   Description
     l       E           TYP  RCUT    TYP  RCUT
     1    -46.6121073     23  1.600
     1      2.7211652     23  1.600
     0     -4.7054661     23  2.000
     0     61.2262170     23  2.000
     2     -1.3605826     23  2.000
  local pseudopotential read in
  partial core-charges read in
  partial kinetic energy density read in
  atomic valenz-charges read in
  non local Contribution for L=           1  read in
    real space projection operators read in
  non local Contribution for L=           1  read in
    real space projection operators read in
  non local Contribution for L=           0  read in
    real space projection operators read in
  non local Contribution for L=           0  read in
    real space projection operators read in
  non local Contribution for L=           2  read in
    real space projection operators read in
    PAW grid and wavefunctions read in

   number of l-projection  operators is LMAX  =           5
   number of lm-projection operators is LMMAX =          13

 POTCAR:    PAW_PBE O 08Apr2002
   SHA256 =  818f92134a0a090dccd8ba1447fa70422a3b330e708bb4f08108d8ae51209ddf O/POTCAR
   COPYR  = (c) Copyright 08Apr2002 Georg Kresse
   COPYR  = This file is part of the software VASP. Any use, copying, and all other rights are regul
   COPYR  = If you do not have a valid VASP license, you may not use, copy or distribute this file.
   VRHFIN =O: s2p4
   LEXCH  = PE
   EATOM  =   432.3788 eV,   31.7789 Ry

   TITEL  = PAW_PBE O 08Apr2002
   LULTRA =        F    use ultrasoft PP ?
   IUNSCR =        1    unscreen: 0-lin 1-nonlin 2-no
   RPACOR =    1.200    partial core radius
   POMASS =   16.000; ZVAL   =    6.000    mass and valenz
   RCORE  =    1.520    outmost cutoff radius
   RWIGS  =    1.550; RWIGS  =    0.820    wigner-seitz radius (au A)
   ENMAX  =  400.000; ENMIN  =  300.000 eV
   ICORE  =        2    local potential
   LCOR   =        T    correct aug charges
   LPAW   =        T    paw PP
   EAUG   =  605.392
   DEXC   =    0.000
   RMAX   =    1.553    core radius for proj-oper
   RAUG   =    1.300    factor for augmentation sphere
   RDEP   =    1.550    radius for radial grids
   RDEPT  =    1.329    core radius for aug-charge

   Atomic configuration
    4 entries
     n  l   j            E        occ.
     1  0  0.50      -514.6923   2.0000
     2  0  0.50       -23.9615   2.0000
     2  1  0.50        -9.0305   4.0000
     3  2  1.50        -9.5241   0.0000
   Description
     l       E           TYP  RCUT    TYP  RCUT
     0    -23.9615318     23  1.200
     0     -9.5240782     23  1.200
     1     -9.0304911     23  1.520
     1      8.1634956     23  1.520
     2     -9.5240782      7  1.500
  local pseudopotential read in
  partial core-charges read in
  partial kinetic energy density read in
  kinetic energy density of atom read in
  atomic valenz-charges read in
  non local Contribution for L=           0  read in
    real space projection operators read in
  non local Contribution for L=           0  read in
    real space projection operators read in
  non local Contribution for L=           1  read in
    real space projection operators read in
  non local Contribution for L=           1  read in
    real space projection operators read in
    PAW grid and wavefunctions read in

   number of l-projection  operators is LMAX  =           4
   number of lm-projection operators is LMMAX =           8

 -----------------------------------------------------------------------------
|                                                                             |
|               ----> ADVICE to this user running VASP <----                  |
|                                                                             |
|     You have a (more or less) 'large supercell' and for larger cells it     |
|     might be more efficient to use real-space projection operators.         |
|     Therefore, try LREAL= Auto in the INCAR file.                           |
|     Mind: For very accurate calculation, you might also keep the            |
|     reciprocal projection scheme (i.e. LREAL=.FALSE.).                      |
|                                                                             |
 -----------------------------------------------------------------------------

 -----------------------------------------------------------------------------
|                                                                             |
|               ----> ADVICE to this user running VASP <----                  |
|                                                                             |
|     You enforced a specific xc type in the INCAR file but a different       |
|     type was found in the POTCAR file.                                      |
|     I HOPE YOU KNOW WHAT YOU ARE DOING!                                     |
|                                                                             |
 -----------------------------------------------------------------------------

  PAW_PBE C 08Apr2002                   :
 energy of atom  1       EATOM= -147.1560
 kinetic energy error for atom=    0.0057 (will be added to EATOM!!)
  PAW_PBE O 08Apr2002                   :
 energy of atom  2       EATOM= -432.3788
 kinetic energy error for atom=    0.0168 (will be added to EATOM!!)
  PAW_PBE Mg_pv 13Apr2007               :
 energy of atom  3       EATOM=-1056.7344
 kinetic energy error for atom=    0.0221 (will be added to EATOM!!)
  PAW_PBE O 08Apr2002                   :
 energy of atom  4       EATOM= -432.3788
 kinetic energy error for atom=    0.0168 (will be added to EATOM!!)


 POSCAR:  C  O Mg  O
  positions in direct lattice
  velocities in cartesian coordinates
 exchange correlation table for  LEXCH =       40
   RHO(1)=    0.500       N(1)  =     2000
   RHO(2)=  100.500       N(2)  =     4000



--------------------------------------------------------------------------------------------------------


 ion  position               nearest neighbor table
   1  0.500  0.500  0.769-   2 1.14
   2  0.500  0.500  0.822-   1 1.14
   3  0.000  0.750  0.350-  35 2.14  37 2.14  38 2.14  45 2.14  54 2.14
   4  0.250  0.000  0.350-  36 2.14  37 2.14  38 2.14  46 2.14  53 2.14
   5  0.000  0.000  0.450-  37 2.14  36 2.14  35 2.14  43 2.14  52 2.14  41 2.14
   6  0.250  0.750  0.450-  38 2.14  36 2.14  35 2.14  44 2.14  51 2.14  42 2.14
   7  0.000  0.750  0.550-  49 2.14  42 2.14  58 2.14  41 2.14  35 2.14  39 2.17
   8  0.250  0.000  0.550-  57 2.14  50 2.14  42 2.14  41 2.14  36 2.14  40 2.17
   9  0.000  0.000  0.650-  41 2.13  40 2.13  39 2.13  47 2.13  56 2.13
  10  0.250  0.750  0.649-  42 2.12  40 2.13  39 2.13  48 2.14  55 2.14
  11  0.000  0.250  0.350-  43 2.14  37 2.14  45 2.14  46 2.14  62 2.14
  12  0.250  0.500  0.350-  44 2.14  38 2.14  45 2.14  46 2.14  61 2.14
  13  0.000  0.500  0.450-  45 2.14  43 2.14  44 2.14  35 2.14  60 2.14  49 2.14
  14  0.250  0.250  0.450-  46 2.14  43 2.14  44 2.14  36 2.14  59 2.14  50 2.14
  15  0.000  0.250  0.550-  49 2.14  50 2.14  66 2.14  41 2.14  43 2.14  47 2.17
  16  0.251  0.500  0.551-  65 2.13  50 2.14  42 2.14  49 2.14  44 2.15  48 2.16
  17  0.000  0.500  0.649-  48 2.13  64 2.13  49 2.13  47 2.14  39 2.14
  18  0.250  0.250  0.649-  50 2.12  47 2.13  40 2.13  48 2.14  63 2.14
  19  0.500  0.750  0.350-  51 2.14  38 2.14  53 2.14  54 2.14  61 2.14
  20  0.750  0.000  0.350-  52 2.14  37 2.14  53 2.14  54 2.14  62 2.14
  21  0.500  0.000  0.450-  53 2.14  51 2.14  52 2.14  36 2.14  59 2.14  57 2.14
  22  0.750  0.750  0.450-  54 2.14  51 2.14  52 2.14  35 2.14  60 2.14  58 2.14
  23  0.500  0.749  0.551-  65 2.13  58 2.14  42 2.14  57 2.14  51 2.15  55 2.16
  24  0.750  0.000  0.550-  57 2.14  58 2.14  66 2.14  41 2.14  52 2.14  56 2.17
  25  0.500  0.000  0.649-  55 2.13  63 2.13  57 2.13  40 2.14  56 2.14
  26  0.750  0.750  0.649-  58 2.12  56 2.13  39 2.13  55 2.14  64 2.14
  27  0.500  0.250  0.350-  59 2.14  53 2.14  46 2.14  61 2.14  62 2.14
  28  0.750  0.500  0.350-  60 2.14  54 2.14  45 2.14  61 2.14  62 2.14
  29  0.500  0.500  0.450-  61 2.14  51 2.14  59 2.14  60 2.14  44 2.14  65 2.15
  30  0.750  0.250  0.450-  62 2.14  52 2.14  59 2.14  60 2.14  43 2.14  66 2.14
  31  0.500  0.251  0.551-  65 2.13  50 2.14  66 2.14  57 2.14  59 2.15  63 2.16
  32  0.749  0.500  0.551-  65 2.13  58 2.14  66 2.14  49 2.14  60 2.15  64 2.16
  33  0.500  0.500  0.652-  48 2.15  55 2.15  63 2.15  64 2.15  65 2.18
  34  0.750  0.250  0.649-  66 2.12  56 2.13  47 2.13  64 2.14  63 2.14
  35  0.000  0.750  0.450-   3 2.14   5 2.14   6 2.14  13 2.14  22 2.14   7 2.14
  36  0.250  0.000  0.450-   4 2.14   5 2.14   6 2.14  14 2.14  21 2.14   8 2.14
  37  0.000  0.000  0.350-   5 2.14   4 2.14   3 2.14  11 2.14  20 2.14
  38  0.250  0.750  0.350-   6 2.14   4 2.14   3 2.14  12 2.14  19 2.14
  39  0.000  0.750  0.651-  10 2.13  26 2.13   9 2.13  17 2.14   7 2.17
  40  0.250  0.000  0.651-  10 2.13  18 2.13   9 2.13  25 2.14   8 2.17
  41  0.000  0.000  0.550-   9 2.13   8 2.14   7 2.14  15 2.14  24 2.14   5 2.14
  42  0.250  0.750  0.550-  10 2.12   8 2.14   7 2.14  16 2.14  23 2.14   6 2.14
  43  0.000  0.250  0.450-  11 2.14   5 2.14  13 2.14  14 2.14  30 2.14  15 2.14
  44  0.250  0.500  0.450-  12 2.14   6 2.14  13 2.14  14 2.14  29 2.14  16 2.15
  45  0.000  0.500  0.350-  13 2.14  11 2.14  12 2.14   3 2.14  28 2.14
  46  0.250  0.250  0.350-  14 2.14  11 2.14  12 2.14   4 2.14  27 2.14
  47  0.000  0.250  0.651-  18 2.13  34 2.13   9 2.13  17 2.14  15 2.17
  48  0.249  0.500  0.651-  17 2.13  10 2.14  18 2.14  33 2.15  16 2.16
  49  0.000  0.500  0.550-  17 2.13  15 2.14   7 2.14  13 2.14  16 2.14  32 2.14
  50  0.250  0.250  0.550-  18 2.12  15 2.14   8 2.14  16 2.14  31 2.14  14 2.14
  51  0.500  0.750  0.450-  19 2.14   6 2.14  21 2.14  22 2.14  29 2.14  23 2.15
  52  0.750  0.000  0.450-  20 2.14   5 2.14  21 2.14  22 2.14  30 2.14  24 2.14
  53  0.500  0.000  0.350-  21 2.14  19 2.14  20 2.14   4 2.14  27 2.14
  54  0.750  0.750  0.350-  22 2.14  19 2.14  20 2.14   3 2.14  28 2.14
  55  0.500  0.751  0.651-  25 2.13  10 2.14  26 2.14  33 2.15  23 2.16
  56  0.750  0.000  0.651-  26 2.13  34 2.13   9 2.13  25 2.14  24 2.17
  57  0.500  0.000  0.550-  25 2.13  24 2.14   8 2.14  21 2.14  23 2.14  31 2.14
  58  0.750  0.750  0.550-  26 2.12  24 2.14   7 2.14  23 2.14  32 2.14  22 2.14
  59  0.500  0.250  0.450-  27 2.14  21 2.14  14 2.14  29 2.14  30 2.14  31 2.15
  60  0.750  0.500  0.450-  28 2.14  22 2.14  13 2.14  29 2.14  30 2.14  32 2.15
  61  0.500  0.500  0.350-  29 2.14  19 2.14  27 2.14  28 2.14  12 2.14
  62  0.750  0.250  0.350-  30 2.14  20 2.14  27 2.14  28 2.14  11 2.14
  63  0.500  0.249  0.651-  25 2.13  18 2.14  34 2.14  33 2.15  31 2.16
  64  0.751  0.500  0.651-  17 2.13  26 2.14  34 2.14  33 2.15  32 2.16
  65  0.500  0.500  0.551-  16 2.13  23 2.13  31 2.13  32 2.13  29 2.15  33 2.18
  66  0.750  0.250  0.550-  34 2.12  24 2.14  15 2.14  32 2.14  31 2.14  30 2.14

  LATTYP: Found a simple tetragonal cell.
 ALAT       =     8.5461136257
 C/A-ratio  =     2.5051837779

  Lattice vectors:

 A1 = (   8.5461136257,   0.0000000000,   0.0000000000)
 A2 = (   0.0000000000,   8.5461136257,   0.0000000000)
 A3 = (   0.0000000000,   0.0000000000,  21.4095852193)


Analysis of symmetry for initial positions (statically):
=====================================================================
 Subroutine PRICEL returns:
 Original cell was already a primitive cell.


 Routine SETGRP: Setting up the symmetry group for a
 simple tetragonal supercell.


 Subroutine GETGRP returns: Found  8 space group operations
 (whereof  8 operations were pure point group operations)
 out of a pool of 16 trial point group operations.


The static configuration has the point symmetry C_4v.


Analysis of symmetry for dynamics (positions and initial velocities):
=====================================================================
 Subroutine PRICEL returns:
 Original cell was already a primitive cell.


 Routine SETGRP: Setting up the symmetry group for a
 simple tetragonal supercell.


 Subroutine GETGRP returns: Found  8 space group operations
 (whereof  8 operations were pure point group operations)
 out of a pool of 16 trial point group operations.


The dynamic configuration has the point symmetry C_4v.


Analysis of constrained symmetry for selective dynamics:
=====================================================================
 Subroutine PRICEL returns:
 Original cell was already a primitive cell.


 Routine SETGRP: Setting up the symmetry group for a
 simple tetragonal supercell.


 Subroutine GETGRP returns: Found  8 space group operations
 (whereof  8 operations were pure point group operations)
 out of a pool of 16 trial point group operations.


The constrained configuration has the point symmetry C_4v.


 Subroutine INISYM returns: Found  8 space group operations
 (whereof  8 operations are pure point group operations),
 and found     1 'primitive' translations


----------------------------------------------------------------------------------------

                                     Primitive cell

  volume of cell :    1563.6717

  direct lattice vectors                    reciprocal lattice vectors
     8.546113626  0.000000000  0.000000000     0.117012252  0.000000000  0.000000000
     0.000000000  8.546113626  0.000000000     0.000000000  0.117012252  0.000000000
     0.000000000  0.000000000 21.409585219     0.000000000  0.000000000  0.046708051

  length of vectors
     8.546113626  8.546113626 21.409585219     0.117012252  0.117012252  0.046708051

  position of ions in fractional coordinates (direct lattice)
     0.500000000  0.500000000  0.768736416
     0.500000000  0.500000000  0.822210893
     0.000000000  0.750000000  0.350310383
     0.250000000  0.000000000  0.350310383
     0.000000000  0.000000000  0.450103461
     0.250000000  0.750000000  0.450103461
     0.000000000  0.749911102  0.550256625
     0.250088898  0.000000000  0.550256625
     0.000000000  0.000000000  0.649548573
     0.249625761  0.750374239  0.649258508
     0.000000000  0.250000000  0.350310383
     0.250000000  0.500000000  0.350310383
     0.000000000  0.500000000  0.450103461
     0.250000000  0.250000000  0.450103461
     0.000000000  0.250088898  0.550256625
     0.250518455  0.500000000  0.550555343
     0.000000000  0.500000000  0.649424303
     0.249625761  0.249625761  0.649258508
     0.500000000  0.750000000  0.350310383
     0.750000000  0.000000000  0.350310383
     0.500000000  0.000000000  0.450103461
     0.750000000  0.750000000  0.450103461
     0.500000000  0.749481545  0.550555343
     0.749911102  0.000000000  0.550256625
     0.500000000  0.000000000  0.649424303
     0.750374239  0.750374239  0.649258508
     0.500000000  0.250000000  0.350310383
     0.750000000  0.500000000  0.350310383
     0.500000000  0.500000000  0.450103461
     0.750000000  0.250000000  0.450103461
     0.500000000  0.250518455  0.550555343
     0.749481545  0.500000000  0.550555343
     0.500000000  0.500000000  0.652187787
     0.750374239  0.249625761  0.649258508
     0.000000000  0.750000000  0.450103461
     0.250000000  0.000000000  0.450103461
     0.000000000  0.000000000  0.350310383
     0.250000000  0.750000000  0.350310383
     0.000000000  0.750299711  0.651447714
     0.249700289  0.000000000  0.651447714
     0.000000000  0.000000000  0.550054707
     0.249941515  0.750058485  0.550104933
     0.000000000  0.250000000  0.450103461
     0.250000000  0.500000000  0.450103461
     0.000000000  0.500000000  0.350310383
     0.250000000  0.250000000  0.350310383
     0.000000000  0.249700289  0.651447714
     0.248743428  0.500000000  0.651471990
     0.000000000  0.500000000  0.550039741
     0.249941515  0.249941515  0.550104933
     0.500000000  0.750000000  0.450103461
     0.750000000  0.000000000  0.450103461
     0.500000000  0.000000000  0.350310383
     0.750000000  0.750000000  0.350310383
     0.500000000  0.751256572  0.651471990
     0.750299711  0.000000000  0.651447714
     0.500000000  0.000000000  0.550039741
     0.750058485  0.750058485  0.550104933
     0.500000000  0.250000000  0.450103461
     0.750000000  0.500000000  0.450103461
     0.500000000  0.500000000  0.350310383
     0.750000000  0.250000000  0.350310383
     0.500000000  0.248743428  0.651471990
     0.751256572  0.500000000  0.651471990
     0.500000000  0.500000000  0.550568450
     0.750058485  0.249941515  0.550104933

  ion indices of the primitive-cell ions
   primitive index   ion index
                 1           1
                 2           2
                 3           3
                 4           4
                 5           5
                 6           6
                 7           7
                 8           8
                 9           9
                10          10
                11          11
                12          12
                13          13
                14          14
                15          15
                16          16
                17          17
                18          18
                19          19
                20          20
                21          21
                22          22
                23          23
                24          24
                25          25
                26          26
                27          27
                28          28
                29          29
                30          30
                31          31
                32          32
                33          33
                34          34
                35          35
                36          36
                37          37
                38          38
                39          39
                40          40
                41          41
                42          42
                43          43
                44          44
                45          45
                46          46
                47          47
                48          48
                49          49
                50          50
                51          51
                52          52
                53          53
                54          54
                55          55
                56          56
                57          57
                58          58
                59          59
                60          60
                61          61
                62          62
                63          63
                64          64
                65          65
                66          66

----------------------------------------------------------------------------------------



 KPOINTS: pymatgen v2020.8.13 with grid density =

Automatic generation of k-mesh.
 Grid dimensions read from file:
 generate k-points for:    2    2    1

 Generating k-lattice:

  Cartesian coordinates                     Fractional coordinates (reciprocal lattice)
     0.058506126  0.000000000  0.000000000     0.500000000  0.000000000  0.000000000
     0.000000000  0.058506126  0.000000000     0.000000000  0.500000000  0.000000000
     0.000000000  0.000000000  0.046708051     0.000000000  0.000000000  1.000000000

  Length of vectors
     0.058506126  0.058506126  0.046708051

  Shift w.r.t. Gamma in fractional coordinates (k-lattice)
     0.000000000  0.000000000  0.000000000


 Subroutine IBZKPT returns following result:
 ===========================================

 Found      3 irreducible k-points:

 Following reciprocal coordinates:
            Coordinates               Weight
  0.000000  0.000000  0.000000      1.000000
  0.500000  0.000000  0.000000      2.000000
  0.500000  0.500000  0.000000      1.000000

 Following cartesian coordinates:
            Coordinates               Weight
  0.000000  0.000000  0.000000      1.000000
  0.058506  0.000000  0.000000      2.000000
  0.058506  0.058506  0.000000      1.000000



--------------------------------------------------------------------------------------------------------




 Dimension of arrays:
   k-points           NKPTS =      3   k-points in BZ     NKDIM =      3   number of bands    NBANDS=    304
   number of dos      NEDOS =    301   number of ions     NIONS =     66
   non local maximal  LDIM  =      5   non local SUM 2l+1 LMDIM =     13
   total plane-waves  NPLWV = 882000
   max r-space proj   IRMAX =      1   max aug-charges    IRDMAX=  11315
   dimension x,y,z NGX =    70 NGY =   70 NGZ =  180
   dimension x,y,z NGXF=   140 NGYF=  140 NGZF=  360
   support grid    NGXF=   140 NGYF=  140 NGZF=  360
   ions per type =               1   1  32  32
   NGX,Y,Z   is equivalent  to a cutoff of  13.62, 13.62, 13.98 a.u.
   NGXF,Y,Z  is equivalent  to a cutoff of  27.23, 27.23, 27.95 a.u.

 SYSTEM =  MgO-rocksalt
 POSCAR =   C  O Mg  O

 Startparameter for this run:
   NWRITE =      2    write-flag & timer
   PREC   = accura    normal or accurate (medium, high low for compatibility)
   ISTART =      0    job   : 0-new  1-cont  2-samecut
   ICHARG =      2    charge: 1-file 2-atom 10-const
   ISPIN  =      1    spin polarized calculation?
   LNONCOLLINEAR =      F non collinear calculations
   LSORBIT =      F    spin-orbit coupling
   INIWAV =      1    electr: 0-lowe 1-rand  2-diag
   LASPH  =      T    aspherical Exc in radial PAW
 Electronic Relaxation 1
   ENCUT  =  600.0 eV  44.10 Ry    6.64 a.u.  17.07 17.07 42.76*2*pi/ulx,y,z
   ENINI  =  600.0     initial cutoff
   ENAUG  =  758.8 eV  augmentation charge cutoff
   NELM   =    200;   NELMIN=  8; NELMDL= -5     # of ELM steps
   EDIFF  = 0.1E-05   stopping-criterion for ELM
   LREAL  =      F    real-space projection
   NLSPLINE    = F    spline interpolate recip. space projectors
   LCOMPAT=      F    compatible to vasp.4.4
   GGA_COMPAT  = T    GGA compatible to vasp.4.4-vasp.4.6
   LMAXPAW     = -100 max onsite density
   LMAXMIX     =    2 max onsite mixed and CHGCAR
   VOSKOWN=      0    Vosko Wilk Nusair interpolation
   ROPT   =    0.00000   0.00000   0.00000   0.00000
 Ionic relaxation
   EDIFFG = -.1E-01   stopping-criterion for IOM
   NSW    =      0    number of steps for IOM
   NBLOCK =      1;   KBLOCK =      1    inner block; outer block
   IBRION =     -1    ionic relax: 0-MD 1-quasi-New 2-CG
   NFREE  =      0    steps in history (QN), initial steepest desc. (CG)
   ISIF   =      2    stress and relaxation
   IWAVPR =     10    prediction:  0-non 1-charg 2-wave 3-comb
   ISYM   =      2    0-nonsym 1-usesym 2-fastsym
   LCORR  =      T    Harris-Foulkes like correction to forces

   POTIM  = 0.5000    time-step for ionic-motion
   TEIN   =    0.0    initial temperature
   TEBEG  =    0.0;   TEEND  =   0.0 temperature during run
   SMASS  =  -3.00    Nose mass-parameter (am)
   estimated Nose-frequenzy (Omega)   =  0.10E-29 period in steps = 0.13E+47 mass=  -0.167E-26a.u.
   SCALEE = 1.0000    scale energy and forces
   NPACO  =    256;   APACO  = 10.0  distance and # of slots for P.C.
   PSTRESS=    0.0 pullay stress

  Mass of Ions in am
   POMASS =  12.01 16.00 24.30 16.00
  Ionic Valenz
   ZVAL   =   4.00  6.00  8.00  6.00
  Atomic Wigner-Seitz radii
   RWIGS  =  -1.00 -1.00 -1.00 -1.00
  virtual crystal weights
   VCA    =   1.00  1.00  1.00  1.00
   NELECT =     458.0000    total number of electrons
   NUPDOWN=      -1.0000    fix difference up-down

 DOS related values:
   EMIN   =  10.00;   EMAX   =-10.00  energy-range for DOS
   EFERMI =   0.00
   ISMEAR =     0;   SIGMA  =   0.05  broadening in eV -4-tet -1-fermi 0-gaus

 Electronic relaxation 2 (details)
   IALGO  =     58    algorithm
   LDIAG  =      T    sub-space diagonalisation (order eigenvalues)
   LSUBROT=      F    optimize rotation matrix (better conditioning)
   TURBO    =      0    0=normal 1=particle mesh
   IRESTART =      0    0=no restart 2=restart with 2 vectors
   NREBOOT  =      0    no. of reboots
   NMIN     =      0    reboot dimension
   EREF     =   0.00    reference energy to select bands
   IMIX   =      4    mixing-type and parameters
     AMIX     =   0.40;   BMIX     =  1.00
     AMIX_MAG =   1.60;   BMIX_MAG =  1.00
     AMIN     =   0.10
     WC   =   100.;   INIMIX=   1;  MIXPRE=   1;  MAXMIX= -45

 Intra band minimization:
   WEIMIN = 0.0000     energy-eigenvalue tresh-hold
   EBREAK =  0.82E-09  absolut break condition
   DEPER  =   0.30     relativ break condition

   TIME   =   0.40     timestep for ELM

  volume/ion in A,a.u.               =      23.69       159.88
  Fermi-wavevector in a.u.,A,eV,Ry     =   1.087213  2.054535 16.082535  1.182033
  Thomas-Fermi vector in A             =   2.223368

 Write flags
   LWAVE        =      F    write WAVECAR
   LDOWNSAMPLE  =      F    k-point downsampling of WAVECAR
   LCHARG       =      F    write CHGCAR
   LVTOT        =      F    write LOCPOT, total local potential
   LVHAR        =      F    write LOCPOT, Hartree potential only
   LELF         =      F    write electronic localiz. function (ELF)
   LORBIT       =      0    0 simple, 1 ext, 2 COOP (PROOUT), +10 PAW based schemes


 Dipole corrections
   LMONO  =      F    monopole corrections only (constant potential shift)
   LDIPOL =      T    correct potential (dipole corrections)
   IDIPOL =      3    1-x, 2-y, 3-z, 4-all directions
   EPSILON=  1.0000000 bulk dielectric constant

 Exchange correlation treatment:
   GGA     =    RE    GGA type
   LEXCH   =    40    internal setting for exchange type
   LIBXC   =     F    Libxc
   VOSKOWN =     0    Vosko Wilk Nusair interpolation
   LHFCALC =     F    Hartree Fock is set to
   LHFONE  =     F    Hartree Fock one center treatment
   AEXX    =    0.0000 exact exchange contribution

 vdW DFT:
   LUSE_VDW   =     T    switch on vdW DFT
   Zab_VDW    =-.8491    correlation parameter
   PARAM1     =0.1234
   PARAM2     =1.0000
   PARAM3     =0.0000
   -- rVV10 --
   BPARAM     = 6.3000
   CPARAM     = 0.0093

 Linear response parameters
   LEPSILON=     F    determine dielectric tensor
   LRPA    =     F    only Hartree local field effects (RPA)
   LNABLA  =     F    use nabla operator in PAW spheres
   LVEL    =     F    velocity operator in full k-point grid
   CSHIFT  =0.1000    complex shift for real part using Kramers Kronig
   OMEGAMAX=  -1.0    maximum frequency
   DEG_THRESHOLD= 0.2000000E-02 threshold for treating states as degnerate
   RTIME   =   -0.100 relaxation time in fs
  (WPLASMAI=    0.000 imaginary part of plasma frequency in eV, 0.658/RTIME)
   DFIELD  = 0.0000000 0.0000000 0.0000000 field for delta impulse in time

  Optional k-point grid parameters
   LKPOINTS_OPT  =     F    use optional k-point grid
   KPOINTS_OPT_MODE=     1    mode for optional k-point grid

 Orbital magnetization related:
   ORBITALMAG=     F  switch on orbital magnetization
   LCHIMAG   =     F  perturbation theory with respect to B field
   DQ        =  0.001000  dq finite difference perturbation B field
   LLRAUG    =     F  two centre corrections for induced B field



--------------------------------------------------------------------------------------------------------


 Static calculation
 charge density and potential will be updated during run
 non-spin polarized calculation
 Conjugate gradient for all bands (Freysoldt, et al. PRB 79, 241103 (2009))
 preconditioned conjugated gradient
 perform sub-space diagonalisation
    before iterative eigenvector-optimisation
 modified Broyden-mixing scheme, WC =      100.0
 initial mixing is a Kerker type mixing with AMIX =  0.4000 and BMIX =      1.0000
 Hartree-type preconditioning will be used
 using additional bands           75
 reciprocal scheme for non local part
 use partial core corrections
 no Harris-corrections to forces
 use gradient corrections
 use of overlap-Matrix (Vanderbilt PP)
 Gauss-broadening in eV      SIGMA  =   0.05


--------------------------------------------------------------------------------------------------------


  energy-cutoff  :      600.00
  volume of cell :     1563.67
      direct lattice vectors                 reciprocal lattice vectors
     8.546113626  0.000000000  0.000000000     0.117012252  0.000000000  0.000000000
     0.000000000  8.546113626  0.000000000     0.000000000  0.117012252  0.000000000
     0.000000000  0.000000000 21.409585219     0.000000000  0.000000000  0.046708051

  length of vectors
     8.546113626  8.546113626 21.409585219     0.117012252  0.117012252  0.046708051



 k-points in units of 2pi/SCALE and weight: pymatgen v2020.8.13 with grid density =
   0.00000000  0.00000000  0.00000000       0.250
   0.05850613  0.00000000  0.00000000       0.500
   0.05850613  0.05850613  0.00000000       0.250

 k-points in reciprocal lattice and weights: pymatgen v2020.8.13 with grid density =
   0.00000000  0.00000000  0.00000000       0.250
   0.50000000  0.00000000  0.00000000       0.500
   0.50000000  0.50000000  0.00000000       0.250

 position of ions in fractional coordinates (direct lattice)
   0.50000000  0.50000000  0.76873642
   0.50000000  0.50000000  0.82221089
   0.00000000  0.75000000  0.35031038
   0.25000000  0.00000000  0.35031038
   0.00000000  0.00000000  0.45010346
   0.25000000  0.75000000  0.45010346
   0.00000000  0.74991110  0.55025663
   0.25008890  0.00000000  0.55025663
   0.00000000  0.00000000  0.64954857
   0.24962576  0.75037424  0.64925851
   0.00000000  0.25000000  0.35031038
   0.25000000  0.50000000  0.35031038
   0.00000000  0.50000000  0.45010346
   0.25000000  0.25000000  0.45010346
   0.00000000  0.25008890  0.55025663
   0.25051846  0.50000000  0.55055534
   0.00000000  0.50000000  0.64942430
   0.24962576  0.24962576  0.64925851
   0.50000000  0.75000000  0.35031038
   0.75000000  0.00000000  0.35031038
   0.50000000  0.00000000  0.45010346
   0.75000000  0.75000000  0.45010346
   0.50000000  0.74948154  0.55055534
   0.74991110  0.00000000  0.55025663
   0.50000000  0.00000000  0.64942430
   0.75037424  0.75037424  0.64925851
   0.50000000  0.25000000  0.35031038
   0.75000000  0.50000000  0.35031038
   0.50000000  0.50000000  0.45010346
   0.75000000  0.25000000  0.45010346
   0.50000000  0.25051846  0.55055534
   0.74948154  0.50000000  0.55055534
   0.50000000  0.50000000  0.65218779
   0.75037424  0.24962576  0.64925851
   0.00000000  0.75000000  0.45010346
   0.25000000  0.00000000  0.45010346
   0.00000000  0.00000000  0.35031038
   0.25000000  0.75000000  0.35031038
   0.00000000  0.75029971  0.65144771
   0.24970029  0.00000000  0.65144771
   0.00000000  0.00000000  0.55005471
   0.24994152  0.75005848  0.55010493
   0.00000000  0.25000000  0.45010346
   0.25000000  0.50000000  0.45010346
   0.00000000  0.50000000  0.35031038
   0.25000000  0.25000000  0.35031038
   0.00000000  0.24970029  0.65144771
   0.24874343  0.50000000  0.65147199
   0.00000000  0.50000000  0.55003974
   0.24994152  0.24994152  0.55010493
   0.50000000  0.75000000  0.45010346
   0.75000000  0.00000000  0.45010346
   0.50000000  0.00000000  0.35031038
   0.75000000  0.75000000  0.35031038
   0.50000000  0.75125657  0.65147199
   0.75029971  0.00000000  0.65144771
   0.50000000  0.00000000  0.55003974
   0.75005848  0.75005848  0.55010493
   0.50000000  0.25000000  0.45010346
   0.75000000  0.50000000  0.45010346
   0.50000000  0.50000000  0.35031038
   0.75000000  0.25000000  0.35031038
   0.50000000  0.24874343  0.65147199
   0.75125657  0.50000000  0.65147199
   0.50000000  0.50000000  0.55056845
   0.75005848  0.24994152  0.55010493

 position of ions in cartesian coordinates  (Angst):
   4.27305681  4.27305681 16.45832782
   4.27305681  4.27305681 17.60319417
   0.00000000  6.40958522  7.50000000
   2.13652841  0.00000000  7.50000000
   0.00000000  0.00000000  9.63652841
   2.13652841  6.40958522  9.63652841
   0.00000000  6.40882549 11.78076611
   2.13728814  0.00000000 11.78076611
   0.00000000  0.00000000 13.90656552
   2.13333012  6.41278351 13.90035536
   0.00000000  2.13652841  7.50000000
   2.13652841  4.27305681  7.50000000
   0.00000000  4.27305681  9.63652841
   2.13652841  2.13652841  9.63652841
   0.00000000  2.13728814 11.78076611
   2.14095919  4.27305681 11.78716154
   0.00000000  4.27305681 13.90390495
   2.13333012  2.13333012 13.90035536
   4.27305681  6.40958522  7.50000000
   6.40958522  0.00000000  7.50000000
   4.27305681  0.00000000  9.63652841
   6.40958522  6.40958522  9.63652841
   4.27305681  6.40515444 11.78716154
   6.40882549  0.00000000 11.78076611
   4.27305681  0.00000000 13.90390495
   6.41278351  6.41278351 13.90035536
   4.27305681  2.13652841  7.50000000
   6.40958522  4.27305681  7.50000000
   4.27305681  4.27305681  9.63652841
   6.40958522  2.13652841  9.63652841
   4.27305681  2.14095919 11.78716154
   6.40515444  4.27305681 11.78716154
   4.27305681  4.27305681 13.96307000
   6.41278351  2.13333012 13.90035536
   0.00000000  6.40958522  9.63652841
   2.13652841  0.00000000  9.63652841
   0.00000000  0.00000000  7.50000000
   2.13652841  6.40958522  7.50000000
   0.00000000  6.41214658 13.94722536
   2.13396704  0.00000000 13.94722536
   0.00000000  0.00000000 11.77644312
   2.13602859  6.41008504 11.77751844
   0.00000000  2.13652841  9.63652841
   2.13652841  4.27305681  9.63652841
   0.00000000  4.27305681  7.50000000
   2.13652841  2.13652841  7.50000000
   0.00000000  2.13396704 13.94722536
   2.12578960  4.27305681 13.94774509
   0.00000000  4.27305681 11.77612271
   2.13602859  2.13602859 11.77751844
   4.27305681  6.40958522  9.63652841
   6.40958522  0.00000000  9.63652841
   4.27305681  0.00000000  7.50000000
   6.40958522  6.40958522  7.50000000
   4.27305681  6.42032403 13.94774509
   6.41214658  0.00000000 13.94722536
   4.27305681  0.00000000 11.77612271
   6.41008504  6.41008504 11.77751844
   4.27305681  2.13652841  9.63652841
   6.40958522  4.27305681  9.63652841
   4.27305681  4.27305681  7.50000000
   6.40958522  2.13652841  7.50000000
   4.27305681  2.12578960 13.94774509
   6.42032403  4.27305681 13.94774509
   4.27305681  4.27305681 11.78744215
   6.41008504  2.13602859 11.77751844



--------------------------------------------------------------------------------------------------------


 k-point   1 :   0.0000 0.0000 0.0000  plane waves:   52089
 k-point   2 :   0.5000 0.0000 0.0000  plane waves:   52262
 k-point   3 :   0.5000 0.5000 0.0000  plane waves:   52144

 maximum and minimum number of plane-waves per node :     26150    26027

 maximum number of plane-waves:     52262
 maximum index in each direction:
   IXMAX=   17   IYMAX=   17   IZMAX=   42
   IXMIN=  -17   IYMIN=  -17   IZMIN=  -42


 parallel 3D FFT for wavefunctions:
    minimum data exchange during FFTs selected (reduces bandwidth)
 parallel 3D FFT for charge:
    minimum data exchange during FFTs selected (reduces bandwidth)


 total amount of memory used by VASP MPI-rank0   134503. kBytes
=======================================================================

   base      :      30000. kBytes
   nonl-proj :      60585. kBytes
   fftplans  :      14624. kBytes
   grid      :      21323. kBytes
   one-center:        267. kBytes
   wavefun   :       7704. kBytes

     INWAV:  cpu time      0.0001: real time      0.0003
 Broyden mixing: mesh for mixing (old mesh)
   NGX = 35   NGY = 35   NGZ = 85
  (NGX  =140   NGY  =140   NGZ  =360)
  gives a total of 104125 points

 initial charge density was supplied:
 charge density of overlapping atoms calculated
 number of electron     458.0000000 magnetization
 keeping initial charge density in first step


--------------------------------------------------------------------------------------------------------


 Maximum index for augmentation-charges          599 (set IRDMAX)


--------------------------------------------------------------------------------------------------------


 First call to EWALD:  gamma=   0.153
 Maximum number of real-space cells 4x 4x 2
 Maximum number of reciprocal cells 2x 2x 5

    FEWALD:  cpu time      0.0014: real time      0.0014


--------------------------------------- Iteration      1(   1)  ---------------------------------------


vdW kernel read from vdw_kernel.bindat
  0.0000  0.2424  0.5071  0.7962  1.1119  1.4567  1.8333  2.2446  2.6937  3.1842
  3.7199  4.3049  4.9438  5.6415  6.4036  7.2358  8.1446  9.1372 10.2212 11.4050
 12.6979 14.1099 15.6519 17.3360 19.1751 21.1837 23.3773 25.7729 28.3892 31.2465
 34.3669 37.7748 41.4965 45.5611 50.0000

    POTLOK:  cpu time      0.4696: real time      0.5108
    SETDIJ:  cpu time      0.0870: real time      0.0872
    TRIAL :  cpu time      3.2834: real time      3.2960
    CORREC:  cpu time      0.0003: real time      0.0003
    --------------------------------------------
      LOOP:  cpu time      3.8436: real time      3.8992

 eigenvalue-minimisations  :  2280
 total energy-change (2. order) : 0.3539811E+04  (-0.3130074E+05)
 number of electron     458.0000000 magnetization
 augmentation part      458.0000000 magnetization

 DIPCOR: dipole corrections for dipol
 direction  3 min pos     1,
 dipolmoment           0.000000      0.000000     -0.000287 electrons x Angstroem
 Tr[quadrupol]     -6477.125341

 energy correction for charged system         0.000000 eV
 dipol+quadrupol energy correction           -0.000000 eV
 added-field ion interaction          0.002230 eV  (added to PSCEN)


 Free energy of the ion-electron system (eV)
  ---------------------------------------------------
  alpha Z        PSCENC =       882.50324387
  Ewald energy   TEWEN  =    132434.33740119
  -Hartree energ DENC   =   -168518.49348930
  -exchange      EXHF   =         0.00000000
  -V(xc)+E(xc)   XCENC  =      1731.21037048
  PAW double counting   =     32391.11887895   -36187.02304673
  entropy T*S    EENTRO =        -0.02260607
  eigenvalues    EBANDS =     -7741.46139344
  atomic energy  EATOM  =     48547.64153090
  ---------------------------------------------------
  free energy    TOTEN  =      3539.81088986 eV

  energy without entropy =     3539.83349593  energy(sigma->0) =     3539.82219290


--------------------------------------------------------------------------------------------------------




--------------------------------------- Iteration      1(   2)  ---------------------------------------


    TRIAL :  cpu time      3.2211: real time      3.2341
    CORREC:  cpu time      0.0001: real time      0.0001
    --------------------------------------------
      LOOP:  cpu time      3.2231: real time      3.2393

 eigenvalue-minimisations  :  2280
 total energy-change (2. order) :-0.3639335E+04  (-0.3624613E+04)
 number of electron     458.0000000 magnetization
 augmentation part      458.0000000 magnetization

 DIPCOR: dipole corrections for dipol
 direction  3 min pos     1,
 dipolmoment           0.000000      0.000000     -0.000287 electrons x Angstroem
 Tr[quadrupol]     -6477.125341

 energy correction for charged system         0.000000 eV
 dipol+quadrupol energy correction           -0.000000 eV
 added-field ion interaction          0.002230 eV  (added to PSCEN)


 Free energy of the ion-electron system (eV)
  ---------------------------------------------------
  alpha Z        PSCENC =       882.50324387
  Ewald energy   TEWEN  =    132434.33740119
  -Hartree energ DENC   =   -168518.49348930
  -exchange      EXHF   =         0.00000000
  -V(xc)+E(xc)   XCENC  =      1731.21037048
  PAW double counting   =     32391.11887895   -36187.02304673
  entropy T*S    EENTRO =        -0.00000000
  eigenvalues    EBANDS =    -11380.81943195
  atomic energy  EATOM  =     48547.64153090
  ---------------------------------------------------
  free energy    TOTEN  =       -99.52454258 eV

  energy without entropy =      -99.52454258  energy(sigma->0) =      -99.52454258


--------------------------------------------------------------------------------------------------------




--------------------------------------- Iteration      1(   3)  ---------------------------------------


    TRIAL :  cpu time      4.3391: real time      4.3553
    CORREC:  cpu time      0.0001: real time      0.0001
    --------------------------------------------
      LOOP:  cpu time      4.3405: real time      4.3597

 eigenvalue-minimisations  :  2736
 total energy-change (2. order) :-0.2099228E+03  (-0.2096296E+03)
 number of electron     458.0000000 magnetization
 augmentation part      458.0000000 magnetization

 DIPCOR: dipole corrections for dipol
 direction  3 min pos     1,
 dipolmoment           0.000000      0.000000     -0.000287 electrons x Angstroem
 Tr[quadrupol]     -6477.125341

 energy correction for charged system         0.000000 eV
 dipol+quadrupol energy correction           -0.000000 eV
 added-field ion interaction          0.002230 eV  (added to PSCEN)


 Free energy of the ion-electron system (eV)
  ---------------------------------------------------
  alpha Z        PSCENC =       882.50324387
  Ewald energy   TEWEN  =    132434.33740119
  -Hartree energ DENC   =   -168518.49348930
  -exchange      EXHF   =         0.00000000
  -V(xc)+E(xc)   XCENC  =      1731.21037048
  PAW double counting   =     32391.11887895   -36187.02304673
  entropy T*S    EENTRO =        -0.00000000
  eigenvalues    EBANDS =    -11590.74225591
  atomic energy  EATOM  =     48547.64153090
  ---------------------------------------------------
  free energy    TOTEN  =      -309.44736654 eV

  energy without entropy =     -309.44736654  energy(sigma->0) =     -309.44736654


--------------------------------------------------------------------------------------------------------




--------------------------------------- Iteration      1(   4)  ---------------------------------------


    TRIAL :  cpu time      2.5879: real time      2.5989
    CORREC:  cpu time      0.0001: real time      0.0001
    --------------------------------------------
      LOOP:  cpu time      2.5894: real time      2.6033

 eigenvalue-minimisations  :  1976
 total energy-change (2. order) :-0.1647289E+01  (-0.1647185E+01)
 number of electron     458.0000000 magnetization
 augmentation part      458.0000000 magnetization

 DIPCOR: dipole corrections for dipol
 direction  3 min pos     1,
 dipolmoment           0.000000      0.000000     -0.000287 electrons x Angstroem
 Tr[quadrupol]     -6477.125341

 energy correction for charged system         0.000000 eV
 dipol+quadrupol energy correction           -0.000000 eV
 added-field ion interaction          0.002230 eV  (added to PSCEN)


 Free energy of the ion-electron system (eV)
  ---------------------------------------------------
  alpha Z        PSCENC =       882.50324387
  Ewald energy   TEWEN  =    132434.33740119
  -Hartree energ DENC   =   -168518.49348930
  -exchange      EXHF   =         0.00000000
  -V(xc)+E(xc)   XCENC  =      1731.21037048
  PAW double counting   =     32391.11887895   -36187.02304673
  entropy T*S    EENTRO =        -0.00000000
  eigenvalues    EBANDS =    -11592.38954503
  atomic energy  EATOM  =     48547.64153090
  ---------------------------------------------------
  free energy    TOTEN  =      -311.09465566 eV

  energy without entropy =     -311.09465566  energy(sigma->0) =     -311.09465566


--------------------------------------------------------------------------------------------------------




--------------------------------------- Iteration      1(   5)  ---------------------------------------


    TRIAL :  cpu time      4.3006: real time      4.3173
    CORREC:  cpu time      0.0001: real time      0.0001
    CHARGE:  cpu time      0.1271: real time      0.1277
    --------------------------------------------
      LOOP:  cpu time      4.4301: real time      4.4492

 eigenvalue-minimisations  :  2736
 total energy-change (2. order) :-0.2326553E-01  (-0.2326336E-01)
 number of electron     457.9999634 magnetization
 augmentation part      160.4612077 magnetization

 DIPCOR: dipole corrections for dipol
 direction  3 min pos     1,
 dipolmoment           0.000000      0.000000     -0.000287 electrons x Angstroem
 Tr[quadrupol]     -6477.125341

 energy correction for charged system         0.000000 eV
 dipol+quadrupol energy correction           -0.000000 eV
 added-field ion interaction          0.002230 eV  (added to PSCEN)


 Free energy of the ion-electron system (eV)
  ---------------------------------------------------
  alpha Z        PSCENC =       882.50324387
  Ewald energy   TEWEN  =    132434.33740119
  -Hartree energ DENC   =   -168518.49348930
  -exchange      EXHF   =         0.00000000
  -V(xc)+E(xc)   XCENC  =      1731.21037048
  PAW double counting   =     32391.11887895   -36187.02304673
  entropy T*S    EENTRO =        -0.00000000
  eigenvalues    EBANDS =    -11592.41281056
  atomic energy  EATOM  =     48547.64153090
  ---------------------------------------------------
  free energy    TOTEN  =      -311.11792119 eV

  energy without entropy =     -311.11792119  energy(sigma->0) =     -311.11792119


--------------------------------------------------------------------------------------------------------




--------------------------------------- Iteration      1(   6)  ---------------------------------------


    POTLOK:  cpu time      0.3027: real time      0.3037
    SETDIJ:  cpu time      0.0840: real time      0.0842
    TRIAL :  cpu time      0.9103: real time      0.9143
    CORREC:  cpu time      0.7982: real time      0.8008
    CHARGE:  cpu time      0.1216: real time      0.1221
    --------------------------------------------
      LOOP:  cpu time      2.2180: real time      2.2294

 eigenvalue-minimisations  :     0
 total energy-change (2. order) : 0.2043580E+03  (-0.1162048E+03)
 number of electron     457.9999662 magnetization
 augmentation part      156.9973218 magnetization

 DIPCOR: dipole corrections for dipol
 direction  3 min pos     1,
 dipolmoment           0.000000      0.000000      0.097803 electrons x Angstroem
 Tr[quadrupol]     -6507.052590

 energy correction for charged system         0.000000 eV
 dipol+quadrupol energy correction           -0.000553 eV
 added-field ion interaction         -0.760475 eV  (added to PSCEN)


 Free energy of the ion-electron system (eV)
  ---------------------------------------------------
  alpha Z        PSCENC =       879.30043466
  Ewald energy   TEWEN  =    132434.33740119
  -Hartree energ DENC   =   -172472.94501642
  -exchange      EXHF   =         0.00000000
  -V(xc)+E(xc)   XCENC  =      1869.19665430
  PAW double counting   =     37026.16455690   -40789.10187377
  entropy T*S    EENTRO =        -0.00000000
  eigenvalues    EBANDS =     -7601.35359048
  atomic energy  EATOM  =     48547.64153090
  ---------------------------------------------------
  free energy    TOTEN  =      -106.75990273 eV

  energy without entropy =     -106.75990273  energy(sigma->0) =     -106.75990273


--------------------------------------------------------------------------------------------------------




--------------------------------------- Iteration      1(   7)  ---------------------------------------


    POTLOK:  cpu time      0.3006: real time      0.3015
    SETDIJ:  cpu time      0.0829: real time      0.0831
    TRIAL :  cpu time      0.9046: real time      0.9083
    CORREC:  cpu time      0.7906: real time      0.7931
    CHARGE:  cpu time      0.1260: real time      0.1269
    --------------------------------------------
      LOOP:  cpu time      2.2061: real time      2.2167

 eigenvalue-minimisations  :     0
 total energy-change (2. order) :-0.1171904E+03  (-0.7413889E+01)
 number of electron     457.9999669 magnetization
 augmentation part      155.1865593 magnetization

 DIPCOR: dipole corrections for dipol
 direction  3 min pos     1,
 dipolmoment           0.000000      0.000000      0.119492 electrons x Angstroem
 Tr[quadrupol]     -6516.731923

 energy correction for charged system         0.000000 eV
 dipol+quadrupol energy correction           -0.000826 eV
 added-field ion interaction         -0.929116 eV  (added to PSCEN)


 Free energy of the ion-electron system (eV)
  ---------------------------------------------------
  alpha Z        PSCENC =       881.25249961
  Ewald energy   TEWEN  =    132434.33740119
  -Hartree energ DENC   =   -170426.46458450
  -exchange      EXHF   =         0.00000000
  -V(xc)+E(xc)   XCENC  =      1791.11178837
  PAW double counting   =     35663.87114095   -39490.92199195
  entropy T*S    EENTRO =        -0.00000000
  eigenvalues    EBANDS =     -9624.77813608
  atomic energy  EATOM  =     48547.64153090
  ---------------------------------------------------
  free energy    TOTEN  =      -223.95035150 eV

  energy without entropy =     -223.95035150  energy(sigma->0) =     -223.95035150


--------------------------------------------------------------------------------------------------------




--------------------------------------- Iteration      1(   8)  ---------------------------------------


    POTLOK:  cpu time      0.3017: real time      0.3027
    SETDIJ:  cpu time      0.0848: real time      0.0851
    TRIAL :  cpu time      0.8995: real time      0.9035
    CORREC:  cpu time      0.7839: real time      0.7865
    CHARGE:  cpu time      0.1221: real time      0.1227
    --------------------------------------------
      LOOP:  cpu time      2.1933: real time      2.2041

 eigenvalue-minimisations  :     0
 total energy-change (2. order) :-0.7435744E+01  (-0.4338016E+01)
 number of electron     457.9999672 magnetization
 augmentation part      155.3233266 magnetization

 DIPCOR: dipole corrections for dipol
 direction  3 min pos     1,
 dipolmoment           0.000000      0.000000      0.076761 electrons x Angstroem
 Tr[quadrupol]     -6515.914247

 energy correction for charged system         0.000000 eV
 dipol+quadrupol energy correction           -0.000341 eV
 added-field ion interaction         -0.596861 eV  (added to PSCEN)


 Free energy of the ion-electron system (eV)
  ---------------------------------------------------
  alpha Z        PSCENC =       881.67536040
  Ewald energy   TEWEN  =    132434.33740119
  -Hartree energ DENC   =   -170369.39848616
  -exchange      EXHF   =         0.00000000
  -V(xc)+E(xc)   XCENC  =      1781.94358355
  PAW double counting   =     35591.16337323   -39352.90062401
  entropy T*S    EENTRO =        -0.00000000
  eigenvalues    EBANDS =     -9745.84823480
  atomic energy  EATOM  =     48547.64153090
  ---------------------------------------------------
  free energy    TOTEN  =      -231.38609570 eV

  energy without entropy =     -231.38609570  energy(sigma->0) =     -231.38609570


--------------------------------------------------------------------------------------------------------




--------------------------------------- Iteration      1(   9)  ---------------------------------------


    POTLOK:  cpu time      0.3043: real time      0.3052
    SETDIJ:  cpu time      0.0833: real time      0.0835
    TRIAL :  cpu time      0.8936: real time      0.8973
    CORREC:  cpu time      0.7802: real time      0.7826
    CHARGE:  cpu time      0.1224: real time      0.1229
    --------------------------------------------
      LOOP:  cpu time      2.1860: real time      2.1958

 eigenvalue-minimisations  :     0
 total energy-change (2. order) :-0.4269029E+01  (-0.1965437E+01)
 number of electron     457.9999672 magnetization
 augmentation part      155.2735116 magnetization

 DIPCOR: dipole corrections for dipol
 direction  3 min pos     1,
 dipolmoment           0.000000      0.000000      0.090598 electrons x Angstroem
 Tr[quadrupol]     -6509.007964

 energy correction for charged system         0.000000 eV
 dipol+quadrupol energy correction           -0.000475 eV
 added-field ion interaction         -0.704452 eV  (added to PSCEN)


 Free energy of the ion-electron system (eV)
  ---------------------------------------------------
  alpha Z        PSCENC =       882.02305593
  Ewald energy   TEWEN  =    132434.33740119
  -Hartree energ DENC   =   -170277.71190825
  -exchange      EXHF   =         0.00000000
  -V(xc)+E(xc)   XCENC  =      1781.73457518
  PAW double counting   =     35549.64596155   -39347.72048045
  entropy T*S    EENTRO =        -0.00000000
  eigenvalues    EBANDS =     -9805.60526092
  atomic energy  EATOM  =     48547.64153090
  ---------------------------------------------------
  free energy    TOTEN  =      -235.65512487 eV

  energy without entropy =     -235.65512487  energy(sigma->0) =     -235.65512487


--------------------------------------------------------------------------------------------------------




--------------------------------------- Iteration      1(  10)  ---------------------------------------


    POTLOK:  cpu time      0.3123: real time      0.3132
    SETDIJ:  cpu time      0.0837: real time      0.0839
    TRIAL :  cpu time      0.8940: real time      0.8978
    CORREC:  cpu time      0.7807: real time      0.7831
    CHARGE:  cpu time      0.1242: real time      0.1246
    --------------------------------------------
      LOOP:  cpu time      2.1964: real time      2.2065

 eigenvalue-minimisations  :     0
 total energy-change (2. order) :-0.1978045E+01  (-0.6693633E+00)
 number of electron     457.9999671 magnetization
 augmentation part      155.2004347 magnetization

 DIPCOR: dipole corrections for dipol
 direction  3 min pos     1,
 dipolmoment           0.000000      0.000000      0.115539 electrons x Angstroem
 Tr[quadrupol]     -6507.086196

 energy correction for charged system         0.000000 eV
 dipol+quadrupol energy correction           -0.000772 eV
 added-field ion interaction         -0.898382 eV  (added to PSCEN)


 Free energy of the ion-electron system (eV)
  ---------------------------------------------------
  alpha Z        PSCENC =       881.81556482
  Ewald energy   TEWEN  =    132434.33740119
  -Hartree energ DENC   =   -170089.01585152
  -exchange      EXHF   =         0.00000000
  -V(xc)+E(xc)   XCENC  =      1779.60545827
  PAW double counting   =     35439.05897709   -39242.41256539
  entropy T*S    EENTRO =        -0.00000000
  eigenvalues    EBANDS =     -9988.66368507
  atomic energy  EATOM  =     48547.64153090
  ---------------------------------------------------
  free energy    TOTEN  =      -237.63316971 eV

  energy without entropy =     -237.63316971  energy(sigma->0) =     -237.63316971


--------------------------------------------------------------------------------------------------------




--------------------------------------- Iteration      1(  11)  ---------------------------------------


    POTLOK:  cpu time      0.3064: real time      0.3075
    SETDIJ:  cpu time      0.0833: real time      0.0835
    TRIAL :  cpu time      0.8938: real time      0.8977
    CORREC:  cpu time      0.7784: real time      0.7809
    CHARGE:  cpu time      0.1228: real time      0.1233
    --------------------------------------------
      LOOP:  cpu time      2.1858: real time      2.1968

 eigenvalue-minimisations  :     0
 total energy-change (2. order) :-0.6718347E+00  (-0.2488640E+00)
 number of electron     457.9999670 magnetization
 augmentation part      155.3037263 magnetization

 DIPCOR: dipole corrections for dipol
 direction  3 min pos     1,
 dipolmoment           0.000000      0.000000      0.105904 electrons x Angstroem
 Tr[quadrupol]     -6508.019655

 energy correction for charged system         0.000000 eV
 dipol+quadrupol energy correction           -0.000649 eV
 added-field ion interaction         -0.823459 eV  (added to PSCEN)


 Free energy of the ion-electron system (eV)
  ---------------------------------------------------
  alpha Z        PSCENC =       881.63142671
  Ewald energy   TEWEN  =    132434.33740119
  -Hartree energ DENC   =   -170012.38310719
  -exchange      EXHF   =         0.00000000
  -V(xc)+E(xc)   XCENC  =      1778.42859852
  PAW double counting   =     35373.53249617   -39167.49864892
  entropy T*S    EENTRO =        -0.00000000
  eigenvalues    EBANDS =    -10073.99470182
  atomic energy  EATOM  =     48547.64153090
  ---------------------------------------------------
  free energy    TOTEN  =      -238.30500443 eV

  energy without entropy =     -238.30500443  energy(sigma->0) =     -238.30500443


--------------------------------------------------------------------------------------------------------




--------------------------------------- Iteration      1(  12)  ---------------------------------------


    POTLOK:  cpu time      0.3053: real time      0.3062
    SETDIJ:  cpu time      0.0839: real time      0.0841
    TRIAL :  cpu time      0.8911: real time      0.8948
    CORREC:  cpu time      0.7833: real time      0.7858
    CHARGE:  cpu time      0.1225: real time      0.1229
    --------------------------------------------
      LOOP:  cpu time      2.1876: real time      2.1978

 eigenvalue-minimisations  :     0
 total energy-change (2. order) :-0.2488674E+00  (-0.9289733E-01)
 number of electron     457.9999670 magnetization
 augmentation part      155.4278871 magnetization

 DIPCOR: dipole corrections for dipol
 direction  3 min pos     1,
 dipolmoment           0.000000      0.000000      0.099399 electrons x Angstroem
 Tr[quadrupol]     -6508.903045

 energy correction for charged system         0.000000 eV
 dipol+quadrupol energy correction           -0.000572 eV
 added-field ion interaction         -0.772884 eV  (added to PSCEN)


 Free energy of the ion-electron system (eV)
  ---------------------------------------------------
  alpha Z        PSCENC =       881.67467324
  Ewald energy   TEWEN  =    132434.33740119
  -Hartree energ DENC   =   -170036.92420256
  -exchange      EXHF   =         0.00000000
  -V(xc)+E(xc)   XCENC  =      1778.71750356
  PAW double counting   =     35356.57539051   -39149.39869645
  entropy T*S    EENTRO =        -0.00000000
  eigenvalues    EBANDS =    -10051.17747220
  atomic energy  EATOM  =     48547.64153090
  ---------------------------------------------------
  free energy    TOTEN  =      -238.55387182 eV

  energy without entropy =     -238.55387182  energy(sigma->0) =     -238.55387182


--------------------------------------------------------------------------------------------------------




--------------------------------------- Iteration      1(  13)  ---------------------------------------


    POTLOK:  cpu time      0.3068: real time      0.3078
    SETDIJ:  cpu time      0.0838: real time      0.0840
    TRIAL :  cpu time      0.8906: real time      0.8946
    CORREC:  cpu time      0.7797: real time      0.7823
    CHARGE:  cpu time      0.1226: real time      0.1231
    --------------------------------------------
      LOOP:  cpu time      2.1848: real time      2.1959

 eigenvalue-minimisations  :     0
 total energy-change (2. order) :-0.9290874E-01  (-0.4376650E-01)
 number of electron     457.9999670 magnetization
 augmentation part      155.4757386 magnetization

 DIPCOR: dipole corrections for dipol
 direction  3 min pos     1,
 dipolmoment           0.000000      0.000000      0.099578 electrons x Angstroem
 Tr[quadrupol]     -6509.453607

 energy correction for charged system         0.000000 eV
 dipol+quadrupol energy correction           -0.000574 eV
 added-field ion interaction         -0.774271 eV  (added to PSCEN)


 Free energy of the ion-electron system (eV)
  ---------------------------------------------------
  alpha Z        PSCENC =       881.72979945
  Ewald energy   TEWEN  =    132434.33740119
  -Hartree energ DENC   =   -170072.79284000
  -exchange      EXHF   =         0.00000000
  -V(xc)+E(xc)   XCENC  =      1779.07026877
  PAW double counting   =     35354.26334391   -39150.71121224
  entropy T*S    EENTRO =        -0.00000000
  eigenvalues    EBANDS =    -10012.18507255
  atomic energy  EATOM  =     48547.64153090
  ---------------------------------------------------
  free energy    TOTEN  =      -238.64678056 eV

  energy without entropy =     -238.64678056  energy(sigma->0) =     -238.64678056


--------------------------------------------------------------------------------------------------------




--------------------------------------- Iteration      1(  14)  ---------------------------------------


    POTLOK:  cpu time      0.3070: real time      0.3079
    SETDIJ:  cpu time      0.0835: real time      0.0838
    TRIAL :  cpu time      0.8882: real time      0.8921
    CORREC:  cpu time      0.7803: real time      0.7829
    CHARGE:  cpu time      0.1225: real time      0.1230
    --------------------------------------------
      LOOP:  cpu time      2.1834: real time      2.1942

 eigenvalue-minimisations  :     0
 total energy-change (2. order) :-0.4379448E-01  (-0.1978359E-01)
 number of electron     457.9999670 magnetization
 augmentation part      155.4591573 magnetization

 DIPCOR: dipole corrections for dipol
 direction  3 min pos     1,
 dipolmoment           0.000000      0.000000      0.101585 electrons x Angstroem
 Tr[quadrupol]     -6509.809027

 energy correction for charged system         0.000000 eV
 dipol+quadrupol energy correction           -0.000597 eV
 added-field ion interaction         -0.789883 eV  (added to PSCEN)


 Free energy of the ion-electron system (eV)
  ---------------------------------------------------
  alpha Z        PSCENC =       881.72503119
  Ewald energy   TEWEN  =    132434.33740119
  -Hartree energ DENC   =   -170090.99086349
  -exchange      EXHF   =         0.00000000
  -V(xc)+E(xc)   XCENC  =      1779.12563099
  PAW double counting   =     35354.82272087   -39152.98628973
  entropy T*S    EENTRO =        -0.00000000
  eigenvalues    EBANDS =     -9992.36573697
  atomic energy  EATOM  =     48547.64153090
  ---------------------------------------------------
  free energy    TOTEN  =      -238.69057504 eV

  energy without entropy =     -238.69057504  energy(sigma->0) =     -238.69057504


--------------------------------------------------------------------------------------------------------




--------------------------------------- Iteration      1(  15)  ---------------------------------------


    POTLOK:  cpu time      0.3098: real time      0.3106
    SETDIJ:  cpu time      0.0826: real time      0.0827
    TRIAL :  cpu time      0.8886: real time      0.8923
    CORREC:  cpu time      0.7784: real time      0.7807
    CHARGE:  cpu time      0.1242: real time      0.1247
    --------------------------------------------
      LOOP:  cpu time      2.1857: real time      2.1952

 eigenvalue-minimisations  :     0
 total energy-change (2. order) :-0.1980353E-01  (-0.8849367E-02)
 number of electron     457.9999670 magnetization
 augmentation part      155.4387263 magnetization

 DIPCOR: dipole corrections for dipol
 direction  3 min pos     1,
 dipolmoment           0.000000      0.000000      0.102222 electrons x Angstroem
 Tr[quadrupol]     -6510.072042

 energy correction for charged system         0.000000 eV
 dipol+quadrupol energy correction           -0.000605 eV
 added-field ion interaction         -0.794830 eV  (added to PSCEN)


 Free energy of the ion-electron system (eV)
  ---------------------------------------------------
  alpha Z        PSCENC =       881.70750230
  Ewald energy   TEWEN  =    132434.33740119
  -Hartree energ DENC   =   -170099.87745825
  -exchange      EXHF   =         0.00000000
  -V(xc)+E(xc)   XCENC  =      1779.15417308
  PAW double counting   =     35359.36833708   -39156.52852784
  entropy T*S    EENTRO =        -0.00000000
  eigenvalues    EBANDS =     -9984.51333704
  atomic energy  EATOM  =     48547.64153090
  ---------------------------------------------------
  free energy    TOTEN  =      -238.71037857 eV

  energy without entropy =     -238.71037857  energy(sigma->0) =     -238.71037857


--------------------------------------------------------------------------------------------------------




--------------------------------------- Iteration      1(  16)  ---------------------------------------


    POTLOK:  cpu time      0.3058: real time      0.3067
    SETDIJ:  cpu time      0.0848: real time      0.0850
    TRIAL :  cpu time      0.8881: real time      0.8918
    CORREC:  cpu time      0.7831: real time      0.7854
    CHARGE:  cpu time      0.1229: real time      0.1234
    --------------------------------------------
      LOOP:  cpu time      2.1862: real time      2.1963

 eigenvalue-minimisations  :     0
 total energy-change (2. order) :-0.8856797E-02  (-0.3570774E-02)
 number of electron     457.9999670 magnetization
 augmentation part      155.4328740 magnetization

 DIPCOR: dipole corrections for dipol
 direction  3 min pos     1,
 dipolmoment           0.000000      0.000000      0.103091 electrons x Angstroem
 Tr[quadrupol]     -6510.226541

 energy correction for charged system         0.000000 eV
 dipol+quadrupol energy correction           -0.000615 eV
 added-field ion interaction         -0.801590 eV  (added to PSCEN)


 Free energy of the ion-electron system (eV)
  ---------------------------------------------------
  alpha Z        PSCENC =       881.70509902
  Ewald energy   TEWEN  =    132434.33740119
  -Hartree energ DENC   =   -170108.72399691
  -exchange      EXHF   =         0.00000000
  -V(xc)+E(xc)   XCENC  =      1779.25559189
  PAW double counting   =     35365.15307679   -39161.47229462
  entropy T*S    EENTRO =        -0.00000000
  eigenvalues    EBANDS =     -9976.61564362
  atomic energy  EATOM  =     48547.64153090
  ---------------------------------------------------
  free energy    TOTEN  =      -238.71923537 eV

  energy without entropy =     -238.71923537  energy(sigma->0) =     -238.71923537


--------------------------------------------------------------------------------------------------------




--------------------------------------- Iteration      1(  17)  ---------------------------------------


    POTLOK:  cpu time      0.3084: real time      0.3094
    SETDIJ:  cpu time      0.0836: real time      0.0838
    TRIAL :  cpu time      0.8891: real time      0.8931
    CORREC:  cpu time      0.7753: real time      0.7779
    CHARGE:  cpu time      0.1229: real time      0.1235
    --------------------------------------------
      LOOP:  cpu time      2.1815: real time      2.1917

 eigenvalue-minimisations  :     0
 total energy-change (2. order) :-0.3564942E-02  (-0.1415937E-02)
 number of electron     457.9999670 magnetization
 augmentation part      155.4334394 magnetization

 DIPCOR: dipole corrections for dipol
 direction  3 min pos     1,
 dipolmoment           0.000000      0.000000      0.104943 electrons x Angstroem
 Tr[quadrupol]     -6510.247260

 energy correction for charged system         0.000000 eV
 dipol+quadrupol energy correction           -0.000637 eV
 added-field ion interaction         -0.815990 eV  (added to PSCEN)


 Free energy of the ion-electron system (eV)
  ---------------------------------------------------
  alpha Z        PSCENC =       881.69733760
  Ewald energy   TEWEN  =    132434.33740119
  -Hartree energ DENC   =   -170113.65316554
  -exchange      EXHF   =         0.00000000
  -V(xc)+E(xc)   XCENC  =      1779.30485552
  PAW double counting   =     35368.54960909   -39165.03898648
  entropy T*S    EENTRO =        -0.00000000
  eigenvalues    EBANDS =     -9971.56138261
  atomic energy  EATOM  =     48547.64153090
  ---------------------------------------------------
  free energy    TOTEN  =      -238.72280031 eV

  energy without entropy =     -238.72280031  energy(sigma->0) =     -238.72280031


--------------------------------------------------------------------------------------------------------




--------------------------------------- Iteration      1(  18)  ---------------------------------------


    POTLOK:  cpu time      0.3082: real time      0.3092
    SETDIJ:  cpu time      0.0842: real time      0.0844
    TRIAL :  cpu time      0.8864: real time      0.8901
    CORREC:  cpu time      0.7802: real time      0.7825
    CHARGE:  cpu time      0.1228: real time      0.1232
    --------------------------------------------
      LOOP:  cpu time      2.1838: real time      2.1935

 eigenvalue-minimisations  :     0
 total energy-change (2. order) :-0.1412216E-02  (-0.6065894E-03)
 number of electron     457.9999670 magnetization
 augmentation part      155.4346971 magnetization

 DIPCOR: dipole corrections for dipol
 direction  3 min pos     1,
 dipolmoment           0.000000      0.000000      0.106216 electrons x Angstroem
 Tr[quadrupol]     -6510.196417

 energy correction for charged system         0.000000 eV
 dipol+quadrupol energy correction           -0.000653 eV
 added-field ion interaction         -0.825888 eV  (added to PSCEN)


 Free energy of the ion-electron system (eV)
  ---------------------------------------------------
  alpha Z        PSCENC =       881.68088684
  Ewald energy   TEWEN  =    132434.33740119
  -Hartree energ DENC   =   -170113.80417135
  -exchange      EXHF   =         0.00000000
  -V(xc)+E(xc)   XCENC  =      1779.31742237
  PAW double counting   =     35370.87369640   -39167.58029468
  entropy T*S    EENTRO =        -0.00000000
  eigenvalues    EBANDS =     -9971.19068421
  atomic energy  EATOM  =     48547.64153090
  ---------------------------------------------------
  free energy    TOTEN  =      -238.72421253 eV

  energy without entropy =     -238.72421253  energy(sigma->0) =     -238.72421253


--------------------------------------------------------------------------------------------------------




--------------------------------------- Iteration      1(  19)  ---------------------------------------


    POTLOK:  cpu time      0.3079: real time      0.3088
    SETDIJ:  cpu time      0.0840: real time      0.0842
    TRIAL :  cpu time      0.8881: real time      0.8919
    CORREC:  cpu time      0.7792: real time      0.7816
[...]
    252       4.9671      0.00000
    253       5.0584      0.00000
    254       5.0588      0.00000
    255       5.0588      0.00000
    256       5.1104      0.00000
    257       5.2624      0.00000
    258       5.2624      0.00000
    259       5.7319      0.00000
    260       5.8556      0.00000
    261       5.8558      0.00000
    262       5.8950      0.00000
    263       6.0123      0.00000
    264       6.1711      0.00000
    265       6.3467      0.00000
    266       6.3513      0.00000
    267       6.3530      0.00000
    268       6.3547      0.00000
    269       6.3584      0.00000
    270       6.4108      0.00000
    271       6.4143      0.00000
    272       6.6310      0.00000
    273       7.0660      0.00000
    274       7.0904      0.00000
    275       7.4116      0.00000
    276       7.6415      0.00000
    277       7.7923      0.00000
    278       7.8167      0.00000
    279       7.8368      0.00000
    280       7.8388      0.00000
    281       7.8449      0.00000
    282       7.8605      0.00000
    283       7.8694      0.00000
    284       7.8777      0.00000
    285       7.9043      0.00000
    286       7.9695      0.00000
    287       8.0180      0.00000
    288       8.1902      0.00000
    289       8.4135      0.00000
    290       8.4724      0.00000
    291       8.5347      0.00000
    292       8.5715      0.00000
    293       8.6128      0.00000
    294       8.6377      0.00000
    295       8.7720      0.00000
    296       8.8173      0.00000
    297       8.8905      0.00000
    298       8.9335      0.00000
    299       8.9752      0.00000
    300       9.1265      0.00000
    301       9.2600      0.00000
    302       9.3334      0.00000
    303       9.3467      0.00000
    304       9.3835      0.00000


--------------------------------------------------------------------------------------------------------


 soft charge-density along one line, spin component           1
         0         1         2         3         4         5         6         7         8         9
 total charge-density along one line

 pseudopotential strength for first ion, spin component:           1
 10.266  13.651  -0.000   0.022  -0.000   0.000  -0.063   0.000
 13.651  18.152  -0.000   0.028  -0.000   0.000  -0.082   0.000
 -0.000  -0.000  -4.354  -0.000  -0.000   8.564   0.000   0.000
  0.022   0.028  -0.000  -4.343  -0.000   0.000   8.505   0.000
 -0.000  -0.000  -0.000  -0.000  -4.354   0.000   0.000   8.564
  0.000   0.000   8.564   0.000   0.000 -18.984  -0.000  -0.000
 -0.063  -0.082   0.000   8.505   0.000  -0.000 -18.793  -0.000
  0.000   0.000   0.000   0.000   8.564  -0.000  -0.000 -18.984
 total augmentation occupancy for first ion, spin component:           1
  7.100  -3.221   0.000   2.091   0.000   0.000   0.377   0.000
 -3.221   1.878   0.000  -1.602  -0.000   0.000  -0.227   0.000
  0.000   0.000   0.832   0.000   0.000   0.058   0.000   0.000
  2.091  -1.602   0.000   2.238   0.000   0.000   0.208   0.000
  0.000  -0.000   0.000   0.000   0.832  -0.000   0.000   0.058
  0.000   0.000   0.058   0.000  -0.000   0.004   0.000   0.000
  0.377  -0.227   0.000   0.208   0.000   0.000   0.029   0.000
  0.000   0.000   0.000   0.000   0.058   0.000   0.000   0.004


------------------------ aborting loop because EDIFF is reached ----------------------------------------


    FORLOC:  cpu time      0.0031: real time      0.0031
    FORNL :  cpu time      0.3221: real time      0.3236
    STRESS:  cpu time      2.2735: real time      2.2820
    FORCOR:  cpu time      0.3063: real time      0.3072
    OFIELD:  cpu time      0.0001: real time      0.0001

  FORCE on cell =-STRESS in cart. coord.  units (eV):
  Direction    XX          YY          ZZ          XY          YZ          ZX
  --------------------------------------------------------------------------------------
  Alpha Z   882.50101   882.50101   882.50101
  Ewald  152672.62194152672.62194************    -0.00000    -0.00000     0.00000
  Hartree163126.77566163126.77566************    -0.00000    -0.00000    -0.00000
  E(xc)   -2564.09247 -2564.09247 -2564.54080    -0.00000    -0.00000     0.00000
  Local  ************************325004.27087    -0.00000    -0.00000    -0.00000
  n-local -2834.07403 -2834.91041 -2863.25126    -0.00001     0.00000    -0.00000
  augment  1084.79320  1084.79320  1075.62885     0.00000     0.00000     0.00000
  Kinetic  7497.69413  7500.33762  7518.21541     0.00002    -0.00000     0.00001
  Fock        0.00000     0.00000     0.00000     0.00000     0.00000     0.00000
  -------------------------------------------------------------------------------------
  Total     -30.26439   -30.26439    -2.54204     0.00000     0.00000    -0.00000
  in kB     -31.00965   -31.00965    -2.60464     0.00000     0.00000    -0.00000
  external pressure =      -21.54 kB  Pullay stress =        0.00 kB


 VOLUME and BASIS-vectors are now :
 -----------------------------------------------------------------------------
  energy-cutoff  :      600.00
  volume of cell :     1563.67
      direct lattice vectors                 reciprocal lattice vectors
     8.546113626  0.000000000  0.000000000     0.117012252  0.000000000  0.000000000
     0.000000000  8.546113626  0.000000000     0.000000000  0.117012252  0.000000000
     0.000000000  0.000000000 21.409585219     0.000000000  0.000000000  0.046708051

  length of vectors
     8.546113626  8.546113626 21.409585219     0.117012252  0.117012252  0.046708051


 FORCES acting on ions:
    Electron-Ion                     Ewald-Force                    Non-Local-Force
 -----------------------------------------------------------------------------------------------
   0.987E-13 0.745E-12 -.794E+03   0.222E-15 0.124E-13 0.767E+03   -.246E-22 0.988E-24 0.272E+02
   0.399E-12 0.168E-11 -.139E+04   -.799E-14 -.444E-15 0.145E+04   -.164E-22 -.185E-22 -.602E+02
   -.312E-13 -.708E-01 0.202E+04   0.671E-13 0.686E-01 -.201E+04   -.751E-23 0.154E-02 -.640E+01
   0.708E-01 -.572E-12 0.202E+04   -.686E-01 0.306E-13 -.201E+04   -.154E-02 -.130E-21 -.640E+01
   -.554E-13 0.266E-12 0.693E+03   0.284E-13 0.817E-13 -.694E+03   0.118E-22 -.496E-23 0.425E+00
   0.172E+00 -.172E+00 0.694E+03   -.151E+00 0.151E+00 -.694E+03   -.148E-01 0.148E-01 0.454E+00
   -.587E-13 -.237E+01 -.622E+03   -.160E-13 0.234E+01 0.622E+03   -.196E-22 0.249E-01 -.170E+00
   0.237E+01 -.419E-12 -.622E+03   -.234E+01 -.711E-14 0.622E+03   -.249E-01 0.279E-22 -.170E+00
   -.539E-13 -.266E-12 -.195E+04   0.124E-12 0.121E-12 0.194E+04   -.943E-23 0.427E-23 0.559E+01
   0.164E+02 -.164E+02 -.193E+04   -.165E+02 0.165E+02 0.192E+04   0.126E+00 -.126E+00 0.567E+01
   -.368E-13 0.708E-01 0.202E+04   0.595E-13 -.686E-01 -.201E+04   0.223E-22 -.154E-02 -.640E+01
   0.693E-01 0.133E-13 0.202E+04   -.646E-01 0.338E-13 -.201E+04   -.363E-02 0.229E-22 -.641E+01
   -.403E-13 0.938E-12 0.694E+03   -.146E-11 -.147E-11 -.694E+03   -.341E-22 0.169E-22 0.391E+00
   0.172E+00 0.172E+00 0.694E+03   -.151E+00 -.151E+00 -.694E+03   -.148E-01 -.148E-01 0.454E+00
   -.563E-13 0.237E+01 -.622E+03   -.139E-11 -.234E+01 0.622E+03   0.379E-22 -.249E-01 -.170E+00
   0.344E+01 -.249E-13 -.617E+03   -.331E+01 0.147E-10 0.618E+03   -.128E+00 -.156E-22 -.335E+00
   -.592E-13 0.113E-11 -.193E+04   -.959E-13 -.320E-13 0.193E+04   0.419E-23 0.421E-22 0.559E+01
   0.164E+02 0.164E+02 -.193E+04   -.165E+02 -.165E+02 0.192E+04   0.126E+00 0.126E+00 0.567E+01
   0.671E-12 -.693E-01 0.202E+04   0.222E-14 0.646E-01 -.201E+04   -.254E-22 0.363E-02 -.641E+01
   -.708E-01 -.512E-12 0.202E+04   0.686E-01 0.213E-13 -.201E+04   0.154E-02 0.703E-22 -.640E+01
   0.595E-12 0.572E-12 0.694E+03   0.300E-11 0.355E-14 -.694E+03   0.189E-22 -.187E-22 0.391E+00
   -.172E+00 -.172E+00 0.694E+03   0.151E+00 0.151E+00 -.694E+03   0.148E-01 0.148E-01 0.454E+00
   0.602E-12 -.344E+01 -.617E+03   -.162E-10 0.331E+01 0.618E+03   -.182E-22 0.128E+00 -.335E+00
   -.237E+01 -.426E-12 -.622E+03   0.234E+01 0.284E-13 0.622E+03   0.249E-01 -.191E-22 -.170E+00
   0.704E-12 -.639E-12 -.193E+04   -.107E-12 0.639E-13 0.193E+04   0.288E-22 0.169E-23 0.559E+01
   -.164E+02 -.164E+02 -.193E+04   0.165E+02 0.165E+02 0.192E+04   -.126E+00 -.126E+00 0.567E+01
   0.666E-12 0.693E-01 0.202E+04   0.409E-13 -.646E-01 -.201E+04   -.343E-23 -.363E-02 -.641E+01
   -.693E-01 -.182E-11 0.202E+04   0.646E-01 0.124E-13 -.201E+04   0.363E-02 0.106E-22 -.641E+01
   0.620E-12 0.532E-12 0.694E+03   0.148E-11 -.139E-11 -.694E+03   0.891E-23 -.110E-22 0.523E+00
   -.172E+00 0.172E+00 0.694E+03   0.151E+00 -.151E+00 -.694E+03   0.148E-01 -.148E-01 0.454E+00
   0.602E-12 0.344E+01 -.617E+03   -.148E-10 -.331E+01 0.618E+03   -.214E-22 -.128E+00 -.335E+00
   -.344E+01 0.633E-11 -.617E+03   0.331E+01 0.148E-10 0.618E+03   0.128E+00 -.368E-23 -.335E+00
   0.683E-12 0.162E-11 -.187E+04   -.586E-12 0.394E-12 0.186E+04   -.207E-21 0.239E-23 0.418E+01
   -.164E+02 0.164E+02 -.193E+04   0.165E+02 -.165E+02 0.192E+04   -.126E+00 0.126E+00 0.567E+01
   -.133E-13 -.214E+00 0.520E+03   -.231E-13 0.206E+00 -.520E+03   -.365E-22 0.124E-01 -.441E-01
   0.214E+00 -.263E-12 0.520E+03   -.206E+00 -.231E-13 -.520E+03   -.124E-01 -.505E-22 -.441E-01
   -.152E-13 0.186E-12 0.151E+04   -.226E-13 -.711E-14 -.152E+04   -.281E-22 -.997E-22 0.358E+01
   0.509E-01 -.509E-01 0.151E+04   -.473E-01 0.473E-01 -.152E+04   -.503E-02 0.503E-02 0.358E+01
   -.424E-13 -.659E+01 -.148E+04   0.133E-13 0.651E+01 0.148E+04   0.452E-22 0.841E-01 -.489E+01
   0.659E+01 0.918E-12 -.148E+04   -.651E+01 -.124E-13 0.148E+04   -.841E-01 0.438E-22 -.489E+01
   -.311E-13 0.256E-12 -.464E+03   0.814E-11 -.810E-11 0.464E+03   0.236E-22 0.561E-23 0.233E+00
   0.205E+01 -.205E+01 -.459E+03   -.203E+01 0.203E+01 0.458E+03   -.191E-01 0.191E-01 0.372E+00
   -.124E-13 0.214E+00 0.520E+03   -.568E-13 -.206E+00 -.520E+03   0.499E-22 -.124E-01 -.441E-01
   0.217E+00 -.233E-13 0.520E+03   -.242E+00 -.373E-13 -.520E+03   0.327E-01 0.481E-23 -.108E+00
   -.523E-14 0.692E-12 0.151E+04   -.977E-14 -.426E-13 -.152E+04   -.559E-22 -.273E-22 0.358E+01
   0.509E-01 0.509E-01 0.151E+04   -.473E-01 -.473E-01 -.152E+04   -.503E-02 -.503E-02 0.358E+01
   -.429E-13 0.659E+01 -.148E+04   0.711E-14 -.651E+01 0.148E+04   0.101E-22 -.841E-01 -.489E+01
   0.218E+02 0.140E-11 -.145E+04   -.215E+02 -.797E-11 0.145E+04   -.300E+00 0.974E-22 -.486E+01
   -.277E-13 0.163E-12 -.459E+03   0.905E-11 0.426E-13 0.459E+03   0.221E-22 -.687E-23 0.289E+00
   0.205E+01 0.205E+01 -.459E+03   -.203E+01 -.203E+01 0.458E+03   -.191E-01 -.191E-01 0.372E+00
   0.273E-12 -.217E+00 0.520E+03   0.754E-12 0.242E+00 -.520E+03   -.267E-23 -.327E-01 -.108E+00
   -.214E+00 -.307E-12 0.520E+03   0.206E+00 -.497E-13 -.520E+03   0.124E-01 0.450E-22 -.441E-01
   0.321E-12 0.366E-12 0.151E+04   -.711E-14 -.377E-13 -.152E+04   -.362E-22 -.185E-21 0.358E+01
   -.509E-01 -.509E-01 0.151E+04   0.473E-01 0.473E-01 -.152E+04   0.503E-02 0.503E-02 0.358E+01
   0.357E-12 -.218E+02 -.145E+04   0.798E-11 0.215E+02 0.145E+04   0.503E-22 0.300E+00 -.486E+01
   -.659E+01 0.108E-11 -.148E+04   0.651E+01 -.249E-13 0.148E+04   0.841E-01 0.511E-22 -.489E+01
   0.272E-12 0.532E-13 -.459E+03   -.895E-12 -.816E-11 0.459E+03   -.684E-23 0.172E-22 0.289E+00
   -.205E+01 -.205E+01 -.459E+03   0.203E+01 0.203E+01 0.458E+03   0.191E-01 0.191E-01 0.372E+00
   0.278E-12 0.217E+00 0.520E+03   0.739E-12 -.242E+00 -.520E+03   0.117E-23 0.327E-01 -.108E+00
   -.217E+00 0.152E-11 0.520E+03   0.242E+00 -.860E-12 -.520E+03   -.327E-01 -.347E-23 -.108E+00
   0.292E-12 0.532E-13 0.151E+04   -.315E-13 -.266E-13 -.152E+04   0.133E-21 -.226E-22 0.357E+01
   -.509E-01 0.509E-01 0.151E+04   0.473E-01 -.473E-01 -.152E+04   0.503E-02 -.503E-02 0.358E+01
   0.336E-12 0.218E+02 -.145E+04   0.797E-11 -.215E+02 0.145E+04   0.119E-22 -.300E+00 -.486E+01
   -.218E+02 0.436E-11 -.145E+04   0.215E+02 -.797E-11 0.145E+04   0.300E+00 -.819E-22 -.486E+01
   0.255E-12 0.161E-11 -.462E+03   0.121E-12 0.355E-13 0.462E+03   0.219E-22 -.402E-22 -.335E+00
   -.205E+01 0.205E+01 -.459E+03   0.203E+01 -.203E+01 0.458E+03   0.191E-01 -.191E-01 0.372E+00
 -----------------------------------------------------------------------------------------------
   0.270E-10 0.305E-10 0.482E+02   -.330E-12 -.746E-13 -.500E-11   0.243E-16 0.312E-16 -.482E+02


 POSITION                                       TOTAL-FORCE (eV/Angst)
 -----------------------------------------------------------------------------------
      4.27306      4.27306     16.45833         0.000000      0.000000      0.007262
      4.27306      4.27306     17.60319         0.000000      0.000000      0.006345
      0.00000      6.40959      7.50000         0.000000     -0.000650      0.323095
      2.13653      0.00000      7.50000         0.000650      0.000000      0.323095
      0.00000      0.00000      9.63653         0.000000      0.000000      0.016018
      2.13653      6.40959      9.63653         0.006532     -0.006532      0.020014
      0.00000      6.40883     11.78077         0.000000     -0.000880      0.004498
      2.13729      0.00000     11.78077         0.000880      0.000000      0.004498
      0.00000      0.00000     13.90657         0.000000      0.000000     -0.017115
      2.13333      6.41278     13.90036         0.001035     -0.001035     -0.012982
      0.00000      2.13653      7.50000         0.000000      0.000650      0.323095
      2.13653      4.27306      7.50000         0.001095      0.000000      0.325398
      0.00000      4.27306      9.63653         0.000000      0.000000      0.031358
      2.13653      2.13653      9.63653         0.006532      0.006532      0.020014
      0.00000      2.13729     11.78077         0.000000      0.000880      0.004498
      2.14096      4.27306     11.78716        -0.000432      0.000000      0.001345
      0.00000      4.27306     13.90390         0.000000      0.000000     -0.013615
      2.13333      2.13333     13.90036         0.001035      0.001035     -0.012982
      4.27306      6.40959      7.50000         0.000000     -0.001095      0.325398
      6.40959      0.00000      7.50000        -0.000650      0.000000      0.323095
      4.27306      0.00000      9.63653         0.000000      0.000000      0.031358
      6.40959      6.40959      9.63653        -0.006532     -0.006532      0.020014
      4.27306      6.40515     11.78716         0.000000      0.000432      0.001345
      6.40883      0.00000     11.78077        -0.000880      0.000000      0.004498
      4.27306      0.00000     13.90390         0.000000      0.000000     -0.013615
      6.41278      6.41278     13.90036        -0.001035     -0.001035     -0.012982
      4.27306      2.13653      7.50000         0.000000      0.001095      0.325398
      6.40959      4.27306      7.50000        -0.001095      0.000000      0.325398
      4.27306      4.27306      9.63653         0.000000      0.000000      0.038543
      6.40959      2.13653      9.63653        -0.006532      0.006532      0.020014
      4.27306      2.14096     11.78716         0.000000     -0.000432      0.001345
      6.40515      4.27306     11.78716         0.000432      0.000000      0.001345
      4.27306      4.27306     13.96307         0.000000      0.000000     -0.002549
      6.41278      2.13333     13.90036        -0.001035      0.001035     -0.012982
      0.00000      6.40959      9.63653         0.000000      0.003482      0.045055
      2.13653      0.00000      9.63653        -0.003482      0.000000      0.045055
      0.00000      0.00000      7.50000         0.000000      0.000000     -0.395515
      2.13653      6.40959      7.50000        -0.001421      0.001421     -0.396684
      0.00000      6.41215     13.94723         0.000000     -0.000561      0.002223
      2.13397      0.00000     13.94723         0.000561      0.000000      0.002223
      0.00000      0.00000     11.77644         0.000000      0.000000      0.001830
      2.13603      6.41009     11.77752         0.000957     -0.000957      0.002900
      0.00000      2.13653      9.63653         0.000000     -0.003482      0.045055
      2.13653      4.27306      9.63653         0.008128      0.000000      0.055947
      0.00000      4.27306      7.50000         0.000000      0.000000     -0.396829
      2.13653      2.13653      7.50000        -0.001421     -0.001421     -0.396684
      0.00000      2.13397     13.94723         0.000000      0.000561      0.002223
      2.12579      4.27306     13.94775         0.000480      0.000000      0.003520
      0.00000      4.27306     11.77612         0.000000      0.000000      0.001827
      2.13603      2.13603     11.77752         0.000957      0.000957      0.002900
      4.27306      6.40959      9.63653         0.000000     -0.008128      0.055947
      6.40959      0.00000      9.63653         0.003482      0.000000      0.045055
      4.27306      0.00000      7.50000         0.000000      0.000000     -0.396829
      6.40959      6.40959      7.50000         0.001421      0.001421     -0.396684
      4.27306      6.42032     13.94775         0.000000     -0.000480      0.003520
      6.41215      0.00000     13.94723        -0.000561      0.000000      0.002223
      4.27306      0.00000     11.77612         0.000000      0.000000      0.001827
      6.41009      6.41009     11.77752        -0.000957     -0.000957      0.002900
      4.27306      2.13653      9.63653         0.000000      0.008128      0.055947
      6.40959      4.27306      9.63653        -0.008128      0.000000      0.055947
      4.27306      4.27306      7.50000         0.000000      0.000000     -0.399003
      6.40959      2.13653      7.50000         0.001421     -0.001421     -0.396684
      4.27306      2.12579     13.94775         0.000000      0.000480      0.003520
      6.42032      4.27306     13.94775        -0.000480      0.000000      0.003520
      4.27306      4.27306     11.78744         0.000000      0.000000      0.001389
      6.41009      2.13603     11.77752        -0.000957      0.000957      0.002900
 -----------------------------------------------------------------------------------
    total drift:                                0.000000      0.000000      0.008908


--------------------------------------------------------------------------------------------------------



  FREE ENERGIE OF THE ION-ELECTRON SYSTEM (eV)
  ---------------------------------------------------
  free  energy   TOTEN  =      -238.72523300 eV

  energy  without entropy=     -238.72523300  energy(sigma->0) =     -238.72523300



--------------------------------------------------------------------------------------------------------


    POTLOK:  cpu time      0.3885: real time      0.3895


--------------------------------------------------------------------------------------------------------


     LOOP+:  cpu time     68.0073: real time     68.3647
    4ORBIT:  cpu time      0.0000: real time      0.0000

 total amount of memory used by VASP MPI-rank0   134503. kBytes
=======================================================================

   base      :      30000. kBytes
   nonl-proj :      60585. kBytes
   fftplans  :      14624. kBytes
   grid      :      21323. kBytes
   one-center:        267. kBytes
   wavefun   :       7704. kBytes



 General timing and accounting informations for this job:
 ========================================================

                  Total CPU time used (sec):       71.210
                            User time (sec):       70.281
                          System time (sec):        0.929
                         Elapsed time (sec):       72.271

                   Maximum memory used (kb):      500048.
                   Average memory used (kb):          N/A

                          Minor page faults:       122366
                          Major page faults:          122
                 Voluntary context switches:         2010
