 vasp.6.3.0 20Jan22 (build Apr  1 2022 16:44:48) complex                         
 executed on        HPECrayEX_GCC date 2023.01.23  21:53:31
 running  512 mpi-ranks, with    1 threads/rank
 distrk:  each k-point on  512 cores,    1 groups
 distr:  one band on NCORE=   8 cores,   64 groups


--------------------------------------------------------------------------------------------------------


 INCAR:
   SYSTEM = MgO-rocksalt
   ISMEAR = 0
   SIGMA = 0.05
   EDIFF = 1E-8
   ALGO = ALL
   ISTART = 0
   IBRION = 5
   POTIM = 0.01
   NFREE = 2
   ISYM = 0
   DIPOL = 0.5 0.5 0.5
   IDIPOL = 3
   LDIPOL = .TRUE.
   GGA = RE
   IVDW = 13
   VDW_S8 = 1.7468
   VDW_A1 = 0.5363
   VDW_A2 = 3.0726
   ENCUT = 600
   PREC = Accurate
   LASPH = .TRUE.
   LREAL = .FALSE.
   ISPIN = 1
   NELM = 200
   NELMIN = 8
   NCORE = 8
   KPAR = 1
   LWAVE = .FALSE.
   LCHARG = .FALSE.

 POTCAR:    PAW_PBE C 08Apr2002                   
 POTCAR:    PAW_PBE O 08Apr2002                   
 POTCAR:    PAW_PBE Mg_pv 13Apr2007               
 POTCAR:    PAW_PBE O 08Apr2002                   
 POTCAR:    PAW_PBE C 08Apr2002                   
   SHA256 =  253f7b50bb8d59471dbedb8285d89021f4a42ed1a2c5d38a03a736e69125dd95 C/POTCAR              
   COPYR  = (c) Copyright 08Apr2002 Georg Kresse                                                    
   COPYR  = This file is part of the software VASP. Any use, copying, and all other rights are regul
   COPYR  = If you do not have a valid VASP license, you may not use, copy or distribute this file. 
   VRHFIN =C: s2p2                                                                                  
   LEXCH  = PE                                                                                      
   EATOM  =   147.1560 eV,   10.8157 Ry                                                             
                                                                                                    
   TITEL  = PAW_PBE C 08Apr2002                                                                     
   LULTRA =        F    use ultrasoft PP ?                                                          
   IUNSCR =        1    unscreen: 0-lin 1-nonlin 2-no                                               
   RPACOR =    1.200    partial core radius                                                         
   POMASS =   12.011; ZVAL   =    4.000    mass and valenz                                          
   RCORE  =    1.500    outmost cutoff radius                                                       
   RWIGS  =    1.630; RWIGS  =    0.863    wigner-seitz radius (au A)                               
   ENMAX  =  400.000; ENMIN  =  300.000 eV                                                          
   ICORE  =        2    local potential                                                             
   LCOR   =        T    correct aug charges                                                         
   LPAW   =        T    paw PP                                                                      
   EAUG   =  644.873                                                                                
   DEXC   =    0.000                                                                                
   RMAX   =    1.529    core radius for proj-oper                                                   
   RAUG   =    1.300    factor for augmentation sphere                                              
   RDEP   =    1.501    radius for radial grids                                                     
   RDEPT  =    1.300    core radius for aug-charge                                                  
                                                                                                    
   Atomic configuration                                                                             
    4 entries                                                                                       
     n  l   j            E        occ.                                                              
     1  0  0.50      -273.3789   2.0000                                                             
     2  0  0.50       -13.7508   2.0000                                                             
     2  1  0.50        -5.2854   2.0000                                                             
     3  2  1.50        -5.4423   0.0000                                                             
   Description                                                                                      
     l       E           TYP  RCUT    TYP  RCUT                                                     
     0    -13.7508458     23  1.200                                                                 
     0     -8.2022199     23  1.200                                                                 
     1     -5.2854383     23  1.500                                                                 
     1     34.0145650     23  1.500                                                                 
     2     -5.4423304      7  1.500                                                                 
  local pseudopotential read in
  partial core-charges read in
  partial kinetic energy density read in
  atomic valenz-charges read in
  non local Contribution for L=           0  read in
    real space projection operators read in
  non local Contribution for L=           0  read in
    real space projection operators read in
  non local Contribution for L=           1  read in
    real space projection operators read in
  non local Contribution for L=           1  read in
    real space projection operators read in
    PAW grid and wavefunctions read in

   number of l-projection  operators is LMAX  =           4
   number of lm-projection operators is LMMAX =           8

 POTCAR:    PAW_PBE O 08Apr2002                   
   SHA256 =  818f92134a0a090dccd8ba1447fa70422a3b330e708bb4f08108d8ae51209ddf O/POTCAR              
   COPYR  = (c) Copyright 08Apr2002 Georg Kresse                                                    
   COPYR  = This file is part of the software VASP. Any use, copying, and all other rights are regul
   COPYR  = If you do not have a valid VASP license, you may not use, copy or distribute this file. 
   VRHFIN =O: s2p4                                                                                  
   LEXCH  = PE                                                                                      
   EATOM  =   432.3788 eV,   31.7789 Ry                                                             
                                                                                                    
   TITEL  = PAW_PBE O 08Apr2002                                                                     
   LULTRA =        F    use ultrasoft PP ?                                                          
   IUNSCR =        1    unscreen: 0-lin 1-nonlin 2-no                                               
   RPACOR =    1.200    partial core radius                                                         
   POMASS =   16.000; ZVAL   =    6.000    mass and valenz                                          
   RCORE  =    1.520    outmost cutoff radius                                                       
   RWIGS  =    1.550; RWIGS  =    0.820    wigner-seitz radius (au A)                               
   ENMAX  =  400.000; ENMIN  =  300.000 eV                                                          
   ICORE  =        2    local potential                                                             
   LCOR   =        T    correct aug charges                                                         
   LPAW   =        T    paw PP                                                                      
   EAUG   =  605.392                                                                                
   DEXC   =    0.000                                                                                
   RMAX   =    1.553    core radius for proj-oper                                                   
   RAUG   =    1.300    factor for augmentation sphere                                              
   RDEP   =    1.550    radius for radial grids                                                     
   RDEPT  =    1.329    core radius for aug-charge                                                  
                                                                                                    
   Atomic configuration                                                                             
    4 entries                                                                                       
     n  l   j            E        occ.                                                              
     1  0  0.50      -514.6923   2.0000                                                             
     2  0  0.50       -23.9615   2.0000                                                             
     2  1  0.50        -9.0305   4.0000                                                             
     3  2  1.50        -9.5241   0.0000                                                             
   Description                                                                                      
     l       E           TYP  RCUT    TYP  RCUT                                                     
     0    -23.9615318     23  1.200                                                                 
     0     -9.5240782     23  1.200                                                                 
     1     -9.0304911     23  1.520                                                                 
     1      8.1634956     23  1.520                                                                 
     2     -9.5240782      7  1.500                                                                 
  local pseudopotential read in
  partial core-charges read in
  partial kinetic energy density read in
  kinetic energy density of atom read in
  atomic valenz-charges read in
  non local Contribution for L=           0  read in
    real space projection operators read in
  non local Contribution for L=           0  read in
    real space projection operators read in
  non local Contribution for L=           1  read in
    real space projection operators read in
  non local Contribution for L=           1  read in
    real space projection operators read in
    PAW grid and wavefunctions read in

   number of l-projection  operators is LMAX  =           4
   number of lm-projection operators is LMMAX =           8

 POTCAR:    PAW_PBE Mg_pv 13Apr2007               
   SHA256 =  f474ac0dd33840b9ae76c01d57fea79fdf77cdfbb07d5ade72c65f83c709b62b Mg_pv/POTCAR          
   COPYR  = (c) Copyright 13Apr2007 Georg Kresse                                                    
   COPYR  = This file is part of the software VASP. Any use, copying, and all other rights are regul
   COPYR  = If you do not have a valid VASP license, you may not use, copy or distribute this file. 
   VRHFIN =Mg: p6s2                                                                                 
   LEXCH  = PE                                                                                      
   EATOM  =  1056.7344 eV,   77.6678 Ry                                                             
                                                                                                    
   TITEL  = PAW_PBE Mg_pv 13Apr2007                                                                 
   LULTRA =        F    use ultrasoft PP ?                                                          
   IUNSCR =        1    unscreen: 0-lin 1-nonlin 2-no                                               
   RPACOR =    1.500    partial core radius                                                         
   POMASS =   24.305; ZVAL   =    8.000    mass and valenz                                          
   RCORE  =    2.000    outmost cutoff radius                                                       
   RWIGS  =    2.000; RWIGS  =    1.058    wigner-seitz radius (au A)                               
   ENMAX  =  403.929; ENMIN  =  302.947 eV                                                          
   RCLOC  =    1.506    cutoff for local pot                                                        
   LCOR   =        T    correct aug charges                                                         
   LPAW   =        T    paw PP                                                                      
   EAUG   =  758.780                                                                                
   DEXC   =    0.000                                                                                
   RMAX   =    2.045    core radius for proj-oper                                                   
   RAUG   =    1.300    factor for augmentation sphere                                              
   RDEP   =    2.025    radius for radial grids                                                     
   RDEPT  =    1.557    core radius for aug-charge                                                  
                                                                                                    
   Atomic configuration                                                                             
    5 entries                                                                                       
     n  l   j            E        occ.                                                              
     1  0  0.50     -1259.6230   2.0000                                                             
     2  0  0.50       -79.8442   2.0000                                                             
     2  1  1.50       -46.6121   6.0000                                                             
     3  0  0.50        -4.7055   2.0000                                                             
     3  2  1.50        -1.3606   0.0000                                                             
   Description                                                                                      
     l       E           TYP  RCUT    TYP  RCUT                                                     
     1    -46.6121073     23  1.600                                                                 
     1      2.7211652     23  1.600                                                                 
     0     -4.7054661     23  2.000                                                                 
     0     61.2262170     23  2.000                                                                 
     2     -1.3605826     23  2.000                                                                 
  local pseudopotential read in
  partial core-charges read in
  partial kinetic energy density read in
  atomic valenz-charges read in
  non local Contribution for L=           1  read in
    real space projection operators read in
  non local Contribution for L=           1  read in
    real space projection operators read in
  non local Contribution for L=           0  read in
    real space projection operators read in
  non local Contribution for L=           0  read in
    real space projection operators read in
  non local Contribution for L=           2  read in
    real space projection operators read in
    PAW grid and wavefunctions read in

   number of l-projection  operators is LMAX  =           5
   number of lm-projection operators is LMMAX =          13

 POTCAR:    PAW_PBE O 08Apr2002                   
   SHA256 =  818f92134a0a090dccd8ba1447fa70422a3b330e708bb4f08108d8ae51209ddf O/POTCAR              
   COPYR  = (c) Copyright 08Apr2002 Georg Kresse                                                    
   COPYR  = This file is part of the software VASP. Any use, copying, and all other rights are regul
   COPYR  = If you do not have a valid VASP license, you may not use, copy or distribute this file. 
   VRHFIN =O: s2p4                                                                                  
   LEXCH  = PE                                                                                      
   EATOM  =   432.3788 eV,   31.7789 Ry                                                             
                                                                                                    
   TITEL  = PAW_PBE O 08Apr2002                                                                     
   LULTRA =        F    use ultrasoft PP ?                                                          
   IUNSCR =        1    unscreen: 0-lin 1-nonlin 2-no                                               
   RPACOR =    1.200    partial core radius                                                         
   POMASS =   16.000; ZVAL   =    6.000    mass and valenz                                          
   RCORE  =    1.520    outmost cutoff radius                                                       
   RWIGS  =    1.550; RWIGS  =    0.820    wigner-seitz radius (au A)                               
   ENMAX  =  400.000; ENMIN  =  300.000 eV                                                          
   ICORE  =        2    local potential                                                             
   LCOR   =        T    correct aug charges                                                         
   LPAW   =        T    paw PP                                                                      
   EAUG   =  605.392                                                                                
   DEXC   =    0.000                                                                                
   RMAX   =    1.553    core radius for proj-oper                                                   
   RAUG   =    1.300    factor for augmentation sphere                                              
   RDEP   =    1.550    radius for radial grids                                                     
   RDEPT  =    1.329    core radius for aug-charge                                                  
                                                                                                    
   Atomic configuration                                                                             
    4 entries                                                                                       
     n  l   j            E        occ.                                                              
     1  0  0.50      -514.6923   2.0000                                                             
     2  0  0.50       -23.9615   2.0000                                                             
     2  1  0.50        -9.0305   4.0000                                                             
     3  2  1.50        -9.5241   0.0000                                                             
   Description                                                                                      
     l       E           TYP  RCUT    TYP  RCUT                                                     
     0    -23.9615318     23  1.200                                                                 
     0     -9.5240782     23  1.200                                                                 
     1     -9.0304911     23  1.520                                                                 
     1      8.1634956     23  1.520                                                                 
     2     -9.5240782      7  1.500                                                                 
  local pseudopotential read in
  partial core-charges read in
  partial kinetic energy density read in
  kinetic energy density of atom read in
  atomic valenz-charges read in
  non local Contribution for L=           0  read in
    real space projection operators read in
  non local Contribution for L=           0  read in
    real space projection operators read in
  non local Contribution for L=           1  read in
    real space projection operators read in
  non local Contribution for L=           1  read in
    real space projection operators read in
    PAW grid and wavefunctions read in

   number of l-projection  operators is LMAX  =           4
   number of lm-projection operators is LMMAX =           8

 -----------------------------------------------------------------------------
|                                                                             |
|               ----> ADVICE to this user running VASP <----                  |
|                                                                             |
|     You have a (more or less) 'large supercell' and for larger cells it     |
|     might be more efficient to use real-space projection operators.         |
|     Therefore, try LREAL= Auto in the INCAR file.                           |
|     Mind: For very accurate calculation, you might also keep the            |
|     reciprocal projection scheme (i.e. LREAL=.FALSE.).                      |
|                                                                             |
 -----------------------------------------------------------------------------

 -----------------------------------------------------------------------------
|                                                                             |
|               ----> ADVICE to this user running VASP <----                  |
|                                                                             |
|     You enforced a specific xc type in the INCAR file but a different       |
|     type was found in the POTCAR file.                                      |
|     I HOPE YOU KNOW WHAT YOU ARE DOING!                                     |
|                                                                             |
 -----------------------------------------------------------------------------

  PAW_PBE C 08Apr2002                   :
 energy of atom  1       EATOM= -147.1560
 kinetic energy error for atom=    0.0057 (will be added to EATOM!!)
  PAW_PBE O 08Apr2002                   :
 energy of atom  2       EATOM= -432.3788
 kinetic energy error for atom=    0.0168 (will be added to EATOM!!)
  PAW_PBE Mg_pv 13Apr2007               :
 energy of atom  3       EATOM=-1056.7344
 kinetic energy error for atom=    0.0221 (will be added to EATOM!!)
  PAW_PBE O 08Apr2002                   :
 energy of atom  4       EATOM= -432.3788
 kinetic energy error for atom=    0.0168 (will be added to EATOM!!)


 POSCAR:  C  O Mg  O
  positions in direct lattice
  No initial velocities read in
 -----------------------------------------------------------------------------
|                                                                             |
|           W    W    AA    RRRRR   N    N  II  N    N   GGGG   !!!           |
|           W    W   A  A   R    R  NN   N  II  NN   N  G    G  !!!           |
|           W    W  A    A  R    R  N N  N  II  N N  N  G       !!!           |
|           W WW W  AAAAAA  RRRRR   N  N N  II  N  N N  G  GGG   !            |
|           WW  WW  A    A  R   R   N   NN  II  N   NN  G    G                |
|           W    W  A    A  R    R  N    N  II  N    N   GGGG   !!!           |
|                                                                             |
|     Specifying the vdW parameters                                           |
|     VDW_S8 = 1.747                                                          |
|     VDW_A1 = 0.536                                                          |
|     VDW_A2 = 3.073                                                          |
|     in the INCAR file will overwrite the defaults for revpbe. Please        |
|     make sure that is what you intended.                                    |
|                                                                             |
 -----------------------------------------------------------------------------

 exchange correlation table for  LEXCH =       40
   RHO(1)=    0.500       N(1)  =     2000
   RHO(2)=  100.500       N(2)  =     4000



--------------------------------------------------------------------------------------------------------


 ion  position               nearest neighbor table
   1  0.500  0.500  0.765-   2 1.15
   2  0.500  0.500  0.819-   1 1.15
   3  0.000  0.750  0.352-  35 2.11  37 2.11  38 2.11  45 2.11  54 2.11
   4  0.250  0.000  0.352-  36 2.11  37 2.11  38 2.11  46 2.11  53 2.11
   5  0.000  0.000  0.451-  37 2.11  36 2.11  35 2.11  43 2.11  52 2.11  41 2.12
   6  0.250  0.750  0.451-  38 2.11  36 2.11  35 2.11  44 2.11  51 2.11  42 2.12
   7  0.000  0.750  0.550-  49 2.11  42 2.11  58 2.11  41 2.11  35 2.12  39 2.15
   8  0.250  0.000  0.550-  57 2.11  50 2.11  42 2.11  41 2.11  36 2.12  40 2.15
   9  0.000  0.000  0.649-  39 2.11  40 2.11  47 2.11  56 2.11  41 2.11
  10  0.250  0.750  0.649-  42 2.11  40 2.11  39 2.11  48 2.11  55 2.11
  11  0.000  0.250  0.352-  43 2.11  37 2.11  45 2.11  46 2.11  62 2.11
  12  0.250  0.500  0.352-  44 2.11  38 2.11  45 2.11  46 2.11  61 2.11
  13  0.000  0.500  0.451-  45 2.11  43 2.11  44 2.11  35 2.11  60 2.11  49 2.12
  14  0.250  0.250  0.451-  46 2.11  43 2.11  44 2.11  36 2.11  59 2.11  50 2.12
  15  0.000  0.250  0.550-  49 2.11  50 2.11  66 2.11  41 2.11  43 2.12  47 2.15
  16  0.250  0.500  0.550-  65 2.11  50 2.11  42 2.11  49 2.11  44 2.13  48 2.15
  17  0.000  0.500  0.649-  48 2.10  64 2.10  49 2.11  47 2.11  39 2.11
  18  0.250  0.250  0.649-  50 2.11  47 2.11  40 2.11  48 2.11  63 2.11
  19  0.500  0.750  0.352-  51 2.11  38 2.11  53 2.11  54 2.11  61 2.11
  20  0.750  0.000  0.352-  52 2.11  37 2.11  53 2.11  54 2.11  62 2.11
  21  0.500  0.000  0.451-  53 2.11  51 2.11  52 2.11  36 2.11  59 2.11  57 2.12
  22  0.750  0.750  0.451-  54 2.11  51 2.11  52 2.11  35 2.11  60 2.11  58 2.12
  23  0.500  0.750  0.550-  65 2.11  58 2.11  42 2.11  57 2.11  51 2.13  55 2.15
  24  0.750  0.000  0.550-  57 2.11  58 2.11  66 2.11  41 2.11  52 2.12  56 2.15
  25  0.500  0.000  0.649-  55 2.10  63 2.10  57 2.11  40 2.11  56 2.11
  26  0.750  0.750  0.649-  58 2.11  56 2.11  39 2.11  55 2.11  64 2.11
  27  0.500  0.250  0.352-  59 2.11  53 2.11  46 2.11  61 2.11  62 2.11
  28  0.750  0.500  0.352-  60 2.11  54 2.11  45 2.11  61 2.11  62 2.11
  29  0.500  0.500  0.451-  61 2.11  51 2.11  59 2.11  60 2.11  44 2.11  65 2.13
  30  0.750  0.250  0.451-  62 2.11  52 2.11  59 2.11  60 2.11  43 2.11  66 2.12
  31  0.500  0.250  0.550-  65 2.11  50 2.11  66 2.11  57 2.11  59 2.13  63 2.15
  32  0.750  0.500  0.550-  65 2.11  58 2.11  66 2.11  49 2.11  60 2.13  64 2.15
  33  0.500  0.500  0.651-  48 2.12  55 2.12  63 2.12  64 2.12  65 2.14
  34  0.750  0.250  0.649-  66 2.11  56 2.11  47 2.11  64 2.11  63 2.11
  35  0.000  0.750  0.451-   3 2.11   5 2.11   6 2.11  13 2.11  22 2.11   7 2.12
  36  0.250  0.000  0.451-   4 2.11   5 2.11   6 2.11  14 2.11  21 2.11   8 2.12
  37  0.000  0.000  0.352-   5 2.11   4 2.11   3 2.11  11 2.11  20 2.11
  38  0.250  0.750  0.352-   6 2.11   4 2.11   3 2.11  12 2.11  19 2.11
  39  0.000  0.750  0.651-   9 2.11  10 2.11  26 2.11  17 2.11   7 2.15
  40  0.250  0.000  0.651-   9 2.11  10 2.11  18 2.11  25 2.11   8 2.15
  41  0.000  0.000  0.550-   9 2.11   8 2.11   7 2.11  15 2.11  24 2.11   5 2.12
  42  0.250  0.750  0.550-  10 2.11   8 2.11   7 2.11  16 2.11  23 2.11   6 2.12
  43  0.000  0.250  0.451-  11 2.11   5 2.11  13 2.11  14 2.11  30 2.11  15 2.12
  44  0.250  0.500  0.451-  12 2.11   6 2.11  13 2.11  14 2.11  29 2.11  16 2.13
  45  0.000  0.500  0.352-  13 2.11  11 2.11  12 2.11   3 2.11  28 2.11
  46  0.250  0.250  0.352-  14 2.11  11 2.11  12 2.11   4 2.11  27 2.11
  47  0.000  0.250  0.651-   9 2.11  18 2.11  34 2.11  17 2.11  15 2.15
  48  0.249  0.500  0.651-  17 2.10  10 2.11  18 2.11  33 2.12  16 2.15
  49  0.000  0.500  0.550-  17 2.11  15 2.11   7 2.11  16 2.11  32 2.11  13 2.12
  50  0.250  0.250  0.550-  18 2.11  15 2.11   8 2.11  16 2.11  31 2.11  14 2.12
  51  0.500  0.750  0.451-  19 2.11   6 2.11  21 2.11  22 2.11  29 2.11  23 2.13
  52  0.750  0.000  0.451-  20 2.11   5 2.11  21 2.11  22 2.11  30 2.11  24 2.12
  53  0.500  0.000  0.352-  21 2.11  19 2.11  20 2.11   4 2.11  27 2.11
  54  0.750  0.750  0.352-  22 2.11  19 2.11  20 2.11   3 2.11  28 2.11
  55  0.500  0.751  0.651-  25 2.10  10 2.11  26 2.11  33 2.12  23 2.15
  56  0.750  0.000  0.651-   9 2.11  26 2.11  34 2.11  25 2.11  24 2.15
  57  0.500  0.000  0.550-  25 2.11  24 2.11   8 2.11  23 2.11  31 2.11  21 2.12
  58  0.750  0.750  0.550-  26 2.11  24 2.11   7 2.11  32 2.11  23 2.11  22 2.12
  59  0.500  0.250  0.451-  27 2.11  21 2.11  14 2.11  29 2.11  30 2.11  31 2.13
  60  0.750  0.500  0.451-  28 2.11  22 2.11  13 2.11  29 2.11  30 2.11  32 2.13
  61  0.500  0.500  0.352-  29 2.11  19 2.11  27 2.11  28 2.11  12 2.11
  62  0.750  0.250  0.352-  30 2.11  20 2.11  27 2.11  28 2.11  11 2.11
  63  0.500  0.249  0.651-  25 2.10  18 2.11  34 2.11  33 2.12  31 2.15
  64  0.751  0.500  0.651-  17 2.10  26 2.11  34 2.11  33 2.12  32 2.15
  65  0.500  0.500  0.550-  16 2.11  23 2.11  31 2.11  32 2.11  29 2.13  33 2.14
  66  0.750  0.250  0.550-  34 2.11  24 2.11  15 2.11  32 2.11  31 2.11  30 2.12


IMPORTANT INFORMATION: All symmetrisations will be switched off!
NOSYMM: (Re-)initialisation of all symmetry stuff for point group C_1.


----------------------------------------------------------------------------------------

                                     Primitive cell                                     

  volume of cell :    1519.8199

  direct lattice vectors                    reciprocal lattice vectors
     8.440984654  0.000000000  0.000000000     0.118469591  0.000000000  0.000000000
     0.000000000  8.440984654  0.000000000     0.000000000  0.118469591  0.000000000
     0.000000000  0.000000000 21.330738491     0.000000000  0.000000000  0.046880702

  length of vectors
     8.440984654  8.440984654 21.330738491     0.118469591  0.118469591  0.046880702

  position of ions in fractional coordinates (direct lattice)
     0.500000000  0.500000000  0.765053803
     0.500000000  0.500000000  0.818817521
     0.000000000  0.750000000  0.351605267
     0.250000000  0.000000000  0.351605267
     0.000000000  0.000000000  0.450535089
     0.250000000  0.750000000  0.450535089
     0.000000000  0.749939268  0.550083239
     0.250060732  0.000000000  0.550083239
     0.000000000  0.000000000  0.648745309
     0.249858327  0.750141673  0.648569547
     0.000000000  0.250000000  0.351605267
     0.250000000  0.500000000  0.351605267
     0.000000000  0.500000000  0.450535089
     0.250000000  0.250000000  0.450535089
     0.000000000  0.250060732  0.550083239
     0.250378379  0.500000000  0.550219524
     0.000000000  0.500000000  0.648615280
     0.249858327  0.249858327  0.648569547
     0.500000000  0.750000000  0.351605267
     0.750000000  0.000000000  0.351605267
     0.500000000  0.000000000  0.450535089
     0.750000000  0.750000000  0.450535089
     0.500000000  0.749621621  0.550219524
     0.749939268  0.000000000  0.550083239
     0.500000000  0.000000000  0.648615280
     0.750141673  0.750141673  0.648569547
     0.500000000  0.250000000  0.351605267
     0.750000000  0.500000000  0.351605267
     0.500000000  0.500000000  0.450535089
     0.750000000  0.250000000  0.450535089
     0.500000000  0.250378379  0.550219524
     0.749621621  0.500000000  0.550219524
     0.500000000  0.500000000  0.650616960
     0.750141673  0.249858327  0.648569547
     0.000000000  0.750000000  0.450535089
     0.250000000  0.000000000  0.450535089
     0.000000000  0.000000000  0.351605267
     0.250000000  0.750000000  0.351605267
     0.000000000  0.750218533  0.650979255
     0.249781467  0.000000000  0.650979255
     0.000000000  0.000000000  0.549809890
     0.249945770  0.750054230  0.549859113
     0.000000000  0.250000000  0.450535089
     0.250000000  0.500000000  0.450535089
     0.000000000  0.500000000  0.351605267
     0.250000000  0.250000000  0.351605267
     0.000000000  0.249781467  0.650979255
     0.248822710  0.500000000  0.650882872
     0.000000000  0.500000000  0.549762666
     0.249945770  0.249945770  0.549859113
     0.500000000  0.750000000  0.450535089
     0.750000000  0.000000000  0.450535089
     0.500000000  0.000000000  0.351605267
     0.750000000  0.750000000  0.351605267
     0.500000000  0.751177290  0.650882872
     0.750218533  0.000000000  0.650979255
     0.500000000  0.000000000  0.549762666
     0.750054230  0.750054230  0.549859113
     0.500000000  0.250000000  0.450535089
     0.750000000  0.500000000  0.450535089
     0.500000000  0.500000000  0.351605267
     0.750000000  0.250000000  0.351605267
     0.500000000  0.248822710  0.650882872
     0.751177290  0.500000000  0.650882872
     0.500000000  0.500000000  0.550231357
     0.750054230  0.249945770  0.549859113

  ion indices of the primitive-cell ions
   primitive index   ion index
                 1           1
                 2           2
                 3           3
                 4           4
                 5           5
                 6           6
                 7           7
                 8           8
                 9           9
                10          10
                11          11
                12          12
                13          13
                14          14
                15          15
                16          16
                17          17
                18          18
                19          19
                20          20
                21          21
                22          22
                23          23
                24          24
                25          25
                26          26
                27          27
                28          28
                29          29
                30          30
                31          31
                32          32
                33          33
                34          34
                35          35
                36          36
                37          37
                38          38
                39          39
                40          40
                41          41
                42          42
                43          43
                44          44
                45          45
                46          46
                47          47
                48          48
                49          49
                50          50
                51          51
                52          52
                53          53
                54          54
                55          55
                56          56
                57          57
                58          58
                59          59
                60          60
                61          61
                62          62
                63          63
                64          64
                65          65
                66          66

----------------------------------------------------------------------------------------



 KPOINTS: pymatgen v2020.8.13 with grid density = 

Automatic generation of k-mesh.
 Grid dimensions read from file:
 generate k-points for:    2    2    1

 Generating k-lattice:

  Cartesian coordinates                     Fractional coordinates (reciprocal lattice)
     0.059234796  0.000000000  0.000000000     0.500000000  0.000000000  0.000000000
     0.000000000  0.059234796  0.000000000     0.000000000  0.500000000  0.000000000
     0.000000000  0.000000000  0.046880702     0.000000000  0.000000000  1.000000000

  Length of vectors
     0.059234796  0.059234796  0.046880702

  Shift w.r.t. Gamma in fractional coordinates (k-lattice)
     0.000000000  0.000000000  0.000000000

 
 Subroutine IBZKPT returns following result:
 ===========================================
 
 Found      4 irreducible k-points:
 
 Following reciprocal coordinates:
            Coordinates               Weight
  0.000000  0.000000  0.000000      1.000000
  0.500000  0.000000  0.000000      1.000000
  0.000000  0.500000  0.000000      1.000000
  0.500000  0.500000  0.000000      1.000000
 
 Following cartesian coordinates:
            Coordinates               Weight
  0.000000  0.000000  0.000000      1.000000
  0.059235  0.000000  0.000000      1.000000
  0.000000  0.059235  0.000000      1.000000
  0.059235  0.059235  0.000000      1.000000
 
 
 Subroutine IBZKPT_HF returns following result:
 ==============================================
 
 Found      4 k-points in 1st BZ
 the following      4 k-points will be used (e.g. in the exchange kernel)
 Following reciprocal coordinates:   # in IRBZ
  0.000000  0.000000  0.000000    0.25000000   1 t-inv F
  0.500000  0.000000  0.000000    0.25000000   2 t-inv F
  0.000000  0.500000  0.000000    0.25000000   3 t-inv F
  0.500000  0.500000  0.000000    0.25000000   4 t-inv F


--------------------------------------------------------------------------------------------------------




 Dimension of arrays:
   k-points           NKPTS =      4   k-points in BZ     NKDIM =      4   number of bands    NBANDS=    320
   number of dos      NEDOS =    301   number of ions     NIONS =     66
   non local maximal  LDIM  =      5   non local SUM 2l+1 LMDIM =     13
   total plane-waves  NPLWV = 882000
   max r-space proj   IRMAX =      1   max aug-charges    IRDMAX=  11635
   dimension x,y,z NGX =    70 NGY =   70 NGZ =  180
   dimension x,y,z NGXF=   140 NGYF=  140 NGZF=  360
   support grid    NGXF=   140 NGYF=  140 NGZF=  360
   ions per type =               1   1  32  32
   NGX,Y,Z   is equivalent  to a cutoff of  13.79, 13.79, 14.03 a.u.
   NGXF,Y,Z  is equivalent  to a cutoff of  27.57, 27.57, 28.06 a.u.

 SYSTEM =  MgO-rocksalt                            
 POSCAR =   C  O Mg  O                             

 Startparameter for this run:
   NWRITE =      2    write-flag & timer
   PREC   = accura    normal or accurate (medium, high low for compatibility)
   ISTART =      0    job   : 0-new  1-cont  2-samecut
   ICHARG =      2    charge: 1-file 2-atom 10-const
   ISPIN  =      1    spin polarized calculation?
   LNONCOLLINEAR =      F non collinear calculations
   LSORBIT =      F    spin-orbit coupling
   INIWAV =      1    electr: 0-lowe 1-rand  2-diag
   LASPH  =      T    aspherical Exc in radial PAW
 Electronic Relaxation 1
   ENCUT  =  600.0 eV  44.10 Ry    6.64 a.u.  16.86 16.86 42.60*2*pi/ulx,y,z
   ENINI  =  600.0     initial cutoff
   ENAUG  =  758.8 eV  augmentation charge cutoff
   NELM   =    200;   NELMIN=  8; NELMDL= -5     # of ELM steps 
   EDIFF  = 0.1E-07   stopping-criterion for ELM
   LREAL  =      F    real-space projection
   NLSPLINE    = F    spline interpolate recip. space projectors
   LCOMPAT=      F    compatible to vasp.4.4
   GGA_COMPAT  = T    GGA compatible to vasp.4.4-vasp.4.6
   LMAXPAW     = -100 max onsite density
   LMAXMIX     =    2 max onsite mixed and CHGCAR
   VOSKOWN=      0    Vosko Wilk Nusair interpolation
   ROPT   =    0.00000   0.00000   0.00000   0.00000
 Ionic relaxation
   EDIFFG = 0.1E-06   stopping-criterion for IOM
   NSW    =    829    number of steps for IOM
   NBLOCK =      1;   KBLOCK =    829    inner block; outer block 
   IBRION =      5    ionic relax: 0-MD 1-quasi-New 2-CG
   NFREE  =      2    steps in history (QN), initial steepest desc. (CG)
   ISIF   =      2    stress and relaxation
   IWAVPR =     11    prediction:  0-non 1-charg 2-wave 3-comb
   ISYM   =      0    0-nonsym 1-usesym 2-fastsym
   LCORR  =      T    Harris-Foulkes like correction to forces

   POTIM  = 0.0100    time-step for ionic-motion
   TEIN   =    0.0    initial temperature
   TEBEG  =    0.0;   TEEND  =   0.0 temperature during run
   SMASS  =  -3.00    Nose mass-parameter (am)
   estimated Nose-frequenzy (Omega)   =  0.10E-29 period in steps = 0.63E+48 mass=  -0.163E-26a.u.
   SCALEE = 1.0000    scale energy and forces
   NPACO  =    256;   APACO  = 10.0  distance and # of slots for P.C.
   PSTRESS=    0.0 pullay stress

  Mass of Ions in am
   POMASS =  12.01 16.00 24.30 16.00
  Ionic Valenz
   ZVAL   =   4.00  6.00  8.00  6.00
  Atomic Wigner-Seitz radii
   RWIGS  =  -1.00 -1.00 -1.00 -1.00
  virtual crystal weights 
   VCA    =   1.00  1.00  1.00  1.00
   NELECT =     458.0000    total number of electrons
   NUPDOWN=      -1.0000    fix difference up-down

 DOS related values:
   EMIN   =  10.00;   EMAX   =-10.00  energy-range for DOS
   EFERMI =   0.00
   ISMEAR =     0;   SIGMA  =   0.05  broadening in eV -4-tet -1-fermi 0-gaus

 Electronic relaxation 2 (details)
   IALGO  =     58    algorithm
   LDIAG  =      T    sub-space diagonalisation (order eigenvalues)
   LSUBROT=      F    optimize rotation matrix (better conditioning)
   TURBO    =      0    0=normal 1=particle mesh
   IRESTART =      0    0=no restart 2=restart with 2 vectors
   NREBOOT  =      0    no. of reboots
   NMIN     =      0    reboot dimension
   EREF     =   0.00    reference energy to select bands
   IMIX   =      4    mixing-type and parameters
     AMIX     =   0.40;   BMIX     =  1.00
     AMIX_MAG =   1.60;   BMIX_MAG =  1.00
     AMIN     =   0.10
     WC   =   100.;   INIMIX=   1;  MIXPRE=   1;  MAXMIX= -45

 Intra band minimization:
   WEIMIN = 0.0010     energy-eigenvalue tresh-hold
   EBREAK =  0.78E-11  absolut break condition
   DEPER  =   0.30     relativ break condition  

   TIME   =   0.40     timestep for ELM

  volume/ion in A,a.u.               =      23.03       155.40
  Fermi-wavevector in a.u.,A,eV,Ry     =   1.097571  2.074108 16.390423  1.204662
  Thomas-Fermi vector in A             =   2.233933

 Write flags
   LWAVE        =      F    write WAVECAR
   LDOWNSAMPLE  =      F    k-point downsampling of WAVECAR
   LCHARG       =      F    write CHGCAR
   LVTOT        =      F    write LOCPOT, total local potential
   LVHAR        =      F    write LOCPOT, Hartree potential only
   LELF         =      F    write electronic localiz. function (ELF)
   LORBIT       =      0    0 simple, 1 ext, 2 COOP (PROOUT), +10 PAW based schemes


 Dipole corrections
   LMONO  =      F    monopole corrections only (constant potential shift)
   LDIPOL =      T    correct potential (dipole corrections)
   IDIPOL =      3    1-x, 2-y, 3-z, 4-all directions 
   EPSILON=  1.0000000 bulk dielectric constant

 Exchange correlation treatment:
   GGA     =    RE    GGA type
   LEXCH   =    40    internal setting for exchange type
   LIBXC   =     F    Libxc                    
   VOSKOWN =     0    Vosko Wilk Nusair interpolation
   LHFCALC =     F    Hartree Fock is set to
   LHFONE  =     F    Hartree Fock one center treatment
   AEXX    =    0.0000 exact exchange contribution

 Linear response parameters
   LEPSILON=     F    determine dielectric tensor
   LRPA    =     F    only Hartree local field effects (RPA)
   LNABLA  =     F    use nabla operator in PAW spheres
   LVEL    =     F    velocity operator in full k-point grid
   CSHIFT  =0.1000    complex shift for real part using Kramers Kronig
   OMEGAMAX=  -1.0    maximum frequency
   DEG_THRESHOLD= 0.2000000E-02 threshold for treating states as degnerate
   RTIME   =   -0.100 relaxation time in fs
  (WPLASMAI=    0.000 imaginary part of plasma frequency in eV, 0.658/RTIME)
   DFIELD  = 0.0000000 0.0000000 0.0000000 field for delta impulse in time

  Optional k-point grid parameters
   LKPOINTS_OPT  =     F    use optional k-point grid
   KPOINTS_OPT_MODE=     1    mode for optional k-point grid

 Orbital magnetization related:
   ORBITALMAG=     F  switch on orbital magnetization
   LCHIMAG   =     F  perturbation theory with respect to B field
   DQ        =  0.001000  dq finite difference perturbation B field
   LLRAUG    =     F  two centre corrections for induced B field



--------------------------------------------------------------------------------------------------------


 finite differences
   using selective dynamics as specified on POSCAR
 charge density and potential will be updated during run
 non-spin polarized calculation
 Conjugate gradient for all bands (Freysoldt, et al. PRB 79, 241103 (2009))
 preconditioned conjugated gradient                                        
 perform sub-space diagonalisation
    before iterative eigenvector-optimisation
 modified Broyden-mixing scheme, WC =      100.0
 initial mixing is a Kerker type mixing with AMIX =  0.4000 and BMIX =      1.0000
 Hartree-type preconditioning will be used
 using additional bands           91
 reciprocal scheme for non local part
 use partial core corrections
 no Harris-corrections to forces 
 use gradient corrections 
 use of overlap-Matrix (Vanderbilt PP)
 Gauss-broadening in eV      SIGMA  =   0.05


--------------------------------------------------------------------------------------------------------


  energy-cutoff  :      600.00
  volume of cell :     1519.82
      direct lattice vectors                 reciprocal lattice vectors
     8.440984654  0.000000000  0.000000000     0.118469591  0.000000000  0.000000000
     0.000000000  8.440984654  0.000000000     0.000000000  0.118469591  0.000000000
     0.000000000  0.000000000 21.330738491     0.000000000  0.000000000  0.046880702

  length of vectors
     8.440984654  8.440984654 21.330738491     0.118469591  0.118469591  0.046880702



 k-points in units of 2pi/SCALE and weight: pymatgen v2020.8.13 with grid density = 
   0.00000000  0.00000000  0.00000000       0.250
   0.05923480  0.00000000  0.00000000       0.250
   0.00000000  0.05923480  0.00000000       0.250
   0.05923480  0.05923480  0.00000000       0.250

 k-points in reciprocal lattice and weights: pymatgen v2020.8.13 with grid density = 
   0.00000000  0.00000000  0.00000000       0.250
   0.50000000  0.00000000  0.00000000       0.250
   0.00000000  0.50000000  0.00000000       0.250
   0.50000000  0.50000000  0.00000000       0.250

 position of ions in fractional coordinates (direct lattice) 
   0.50000000  0.50000000  0.76505380
   0.50000000  0.50000000  0.81881752
   0.00000000  0.75000000  0.35160527
   0.25000000  0.00000000  0.35160527
   0.00000000  0.00000000  0.45053509
   0.25000000  0.75000000  0.45053509
   0.00000000  0.74993927  0.55008324
   0.25006073  0.00000000  0.55008324
   0.00000000  0.00000000  0.64874531
   0.24985833  0.75014167  0.64856955
   0.00000000  0.25000000  0.35160527
   0.25000000  0.50000000  0.35160527
   0.00000000  0.50000000  0.45053509
   0.25000000  0.25000000  0.45053509
   0.00000000  0.25006073  0.55008324
   0.25037838  0.50000000  0.55021952
   0.00000000  0.50000000  0.64861528
   0.24985833  0.24985833  0.64856955
   0.50000000  0.75000000  0.35160527
   0.75000000  0.00000000  0.35160527
   0.50000000  0.00000000  0.45053509
   0.75000000  0.75000000  0.45053509
   0.50000000  0.74962162  0.55021952
   0.74993927  0.00000000  0.55008324
   0.50000000  0.00000000  0.64861528
   0.75014167  0.75014167  0.64856955
   0.50000000  0.25000000  0.35160527
   0.75000000  0.50000000  0.35160527
   0.50000000  0.50000000  0.45053509
   0.75000000  0.25000000  0.45053509
   0.50000000  0.25037838  0.55021952
   0.74962162  0.50000000  0.55021952
   0.50000000  0.50000000  0.65061696
   0.75014167  0.24985833  0.64856955
   0.00000000  0.75000000  0.45053509
   0.25000000  0.00000000  0.45053509
   0.00000000  0.00000000  0.35160527
   0.25000000  0.75000000  0.35160527
   0.00000000  0.75021853  0.65097926
   0.24978147  0.00000000  0.65097926
   0.00000000  0.00000000  0.54980989
   0.24994577  0.75005423  0.54985911
   0.00000000  0.25000000  0.45053509
   0.25000000  0.50000000  0.45053509
   0.00000000  0.50000000  0.35160527
   0.25000000  0.25000000  0.35160527
   0.00000000  0.24978147  0.65097926
   0.24882271  0.50000000  0.65088287
   0.00000000  0.50000000  0.54976267
   0.24994577  0.24994577  0.54985911
   0.50000000  0.75000000  0.45053509
   0.75000000  0.00000000  0.45053509
   0.50000000  0.00000000  0.35160527
   0.75000000  0.75000000  0.35160527
   0.50000000  0.75117729  0.65088287
   0.75021853  0.00000000  0.65097926
   0.50000000  0.00000000  0.54976267
   0.75005423  0.75005423  0.54985911
   0.50000000  0.25000000  0.45053509
   0.75000000  0.50000000  0.45053509
   0.50000000  0.50000000  0.35160527
   0.75000000  0.25000000  0.35160527
   0.50000000  0.24882271  0.65088287
   0.75117729  0.50000000  0.65088287
   0.50000000  0.50000000  0.55023136
   0.75005423  0.24994577  0.54985911

 position of ions in cartesian coordinates  (Angst):
   4.22049233  4.22049233 16.31916259
   4.22049233  4.22049233 17.46598241
   0.00000000  6.33073849  7.50000000
   2.11024616  0.00000000  7.50000000
   0.00000000  0.00000000  9.61024616
   2.11024616  6.33073849  9.61024616
   0.00000000  6.33022585 11.73368172
   2.11075880  0.00000000 11.73368172
   0.00000000  0.00000000 13.83821654
   2.10905031  6.33193435 13.83446740
   0.00000000  2.11024616  7.50000000
   2.11024616  4.22049233  7.50000000
   0.00000000  4.22049233  9.61024616
   2.11024616  2.11024616  9.61024616
   0.00000000  2.11075880 11.73368172
   2.11344006  4.22049233 11.73658877
   0.00000000  4.22049233 13.83544293
   2.10905031  2.10905031 13.83446740
   4.22049233  6.33073849  7.50000000
   6.33073849  0.00000000  7.50000000
   4.22049233  0.00000000  9.61024616
   6.33073849  6.33073849  9.61024616
   4.22049233  6.32754460 11.73658877
   6.33022585  0.00000000 11.73368172
   4.22049233  0.00000000 13.83544293
   6.33193435  6.33193435 13.83446740
   4.22049233  2.11024616  7.50000000
   6.33073849  4.22049233  7.50000000
   4.22049233  4.22049233  9.61024616
   6.33073849  2.11024616  9.61024616
   4.22049233  2.11344006 11.73658877
   6.32754460  4.22049233 11.73658877
   4.22049233  4.22049233 13.87814023
   6.33193435  2.10905031 13.83446740
   0.00000000  6.33073849  9.61024616
   2.11024616  0.00000000  9.61024616
   0.00000000  0.00000000  7.50000000
   2.11024616  6.33073849  7.50000000
   0.00000000  6.33258312 13.88586825
   2.10840153  0.00000000 13.88586825
   0.00000000  0.00000000 11.72785099
   2.10978841  6.33119624 11.72890095
   0.00000000  2.11024616  9.61024616
   2.11024616  4.22049233  9.61024616
   0.00000000  4.22049233  7.50000000
   2.11024616  2.11024616  7.50000000
   0.00000000  2.10840153 13.88586825
   2.10030867  4.22049233 13.88381232
   0.00000000  4.22049233 11.72684365
   2.10978841  2.10978841 11.72890095
   4.22049233  6.33073849  9.61024616
   6.33073849  0.00000000  9.61024616
   4.22049233  0.00000000  7.50000000
   6.33073849  6.33073849  7.50000000
   4.22049233  6.34067598 13.88381232
   6.33258312  0.00000000 13.88586825
   4.22049233  0.00000000 11.72684365
   6.33119624  6.33119624 11.72890095
   4.22049233  2.11024616  9.61024616
   6.33073849  4.22049233  9.61024616
   4.22049233  4.22049233  7.50000000
   6.33073849  2.11024616  7.50000000
   4.22049233  2.10030867 13.88381232
   6.34067598  4.22049233 13.88381232
   4.22049233  4.22049233 11.73684118
   6.33119624  2.10978841 11.72890095



--------------------------------------------------------------------------------------------------------


 k-point   1 :   0.0000 0.0000 0.0000  plane waves:   50745
 k-point   2 :   0.5000 0.0000 0.0000  plane waves:   50798
 k-point   3 :   0.0000 0.5000 0.0000  plane waves:   50798
 k-point   4 :   0.5000 0.5000 0.0000  plane waves:   50752

 maximum and minimum number of plane-waves per node :      6373     6310

 maximum number of plane-waves:     50798
 maximum index in each direction: 
   IXMAX=   16   IYMAX=   16   IZMAX=   42
   IXMIN=  -17   IYMIN=  -17   IZMIN=  -42


 parallel 3D FFT for wavefunctions:
    minimum data exchange during FFTs selected (reduces bandwidth)
 parallel 3D FFT for charge:
    minimum data exchange during FFTs selected (reduces bandwidth)


 total amount of memory used by VASP MPI-rank0    66858. kBytes
=======================================================================

   base      :      30000. kBytes
   nonl-proj :      17408. kBytes
   fftplans  :       4923. kBytes
   grid      :       8190. kBytes
   one-center:         73. kBytes
   wavefun   :       6264. kBytes

     INWAV:  cpu time      0.0000: real time      0.0000
 Broyden mixing: mesh for mixing (old mesh)
   NGX = 33   NGY = 33   NGZ = 85
  (NGX  =140   NGY  =140   NGZ  =360)
  gives a total of  92565 points

 initial charge density was supplied:
 charge density of overlapping atoms calculated
 number of electron     458.0000000 magnetization 
 keeping initial charge density in first step


--------------------------------------------------------------------------------------------------------


 Maximum index for augmentation-charges          608 (set IRDMAX)


--------------------------------------------------------------------------------------------------------


 First call to EWALD:  gamma=   0.154
 Maximum number of real-space cells 4x 4x 2
 Maximum number of reciprocal cells 2x 2x 5

    FEWALD:  cpu time      0.0034: real time      0.0034


--------------------------------------- Iteration      1(   1)  ---------------------------------------


    POTLOK:  cpu time      0.0806: real time      0.0812
    SETDIJ:  cpu time      0.1911: real time      0.1912
    TRIAL :  cpu time     18.9961: real time     19.1141
    CORREC:  cpu time      0.0011: real time      0.0011
    --------------------------------------------
      LOOP:  cpu time     19.2707: real time     19.4208

 eigenvalue-minimisations  :  3072
 total energy-change (2. order) : 0.4164122E+04  (-0.3069456E+05)
 number of electron     458.0000000 magnetization 
 augmentation part      458.0000000 magnetization 

 DIPCOR: dipole corrections for dipol
 direction  3 min pos     1,
 dipolmoment           0.000000      0.000000     -0.000256 electrons x Angstroem
 Tr[quadrupol]     -6318.706890

 energy correction for charged system         0.000000 eV
 dipol+quadrupol energy correction           -0.000000 eV
 added-field ion interaction          0.002074 eV  (added to PSCEN)


 Free energy of the ion-electron system (eV)
  ---------------------------------------------------
  alpha Z        PSCENC =       907.96617802
  Ewald energy   TEWEN  =    137143.22463369
  -Hartree energ DENC   =   -173242.07343078
  -exchange      EXHF   =         0.00000000
  -V(xc)+E(xc)   XCENC  =      1766.59592806
  PAW double counting   =     32340.89285313   -36127.75492224
  entropy T*S    EENTRO =        -0.01725636
  eigenvalues    EBANDS =     -6821.28744673
  atomic energy  EATOM  =     48196.57542979
  ---------------------------------------------------
  free energy    TOTEN  =      4164.12196657 eV

  energy without entropy =     4164.13922293  energy(sigma->0) =     4164.13059475


--------------------------------------------------------------------------------------------------------




--------------------------------------- Iteration      1(   2)  ---------------------------------------


    TRIAL :  cpu time      3.9629: real time      3.9633
    CORREC:  cpu time      0.0003: real time      0.0003
    --------------------------------------------
      LOOP:  cpu time      3.9690: real time      3.9786

 eigenvalue-minimisations  :  3072
 total energy-change (2. order) :-0.4281835E+04  (-0.4209288E+04)
 number of electron     458.0000000 magnetization 
 augmentation part      458.0000000 magnetization 

 DIPCOR: dipole corrections for dipol
 direction  3 min pos     1,
 dipolmoment           0.000000      0.000000     -0.000256 electrons x Angstroem
 Tr[quadrupol]     -6318.706890

 energy correction for charged system         0.000000 eV
 dipol+quadrupol energy correction           -0.000000 eV
 added-field ion interaction          0.002074 eV  (added to PSCEN)


 Free energy of the ion-electron system (eV)
  ---------------------------------------------------
  alpha Z        PSCENC =       907.96617802
  Ewald energy   TEWEN  =    137143.22463369
  -Hartree energ DENC   =   -173242.07343078
  -exchange      EXHF   =         0.00000000
  -V(xc)+E(xc)   XCENC  =      1766.59592806
  PAW double counting   =     32340.89285313   -36127.75492224
  entropy T*S    EENTRO =        -0.00000000
  eigenvalues    EBANDS =    -11103.13966445
  atomic energy  EATOM  =     48196.57542979
  ---------------------------------------------------
  free energy    TOTEN  =      -117.71299479 eV

  energy without entropy =     -117.71299479  energy(sigma->0) =     -117.71299479


--------------------------------------------------------------------------------------------------------




--------------------------------------- Iteration      1(   3)  ---------------------------------------


    TRIAL :  cpu time      4.2031: real time      4.2034
    CORREC:  cpu time      0.0003: real time      0.0003
    --------------------------------------------
      LOOP:  cpu time      4.2089: real time      4.2179

 eigenvalue-minimisations  :  3072
 total energy-change (2. order) :-0.3084978E+03  (-0.3064589E+03)
 number of electron     458.0000000 magnetization 
 augmentation part      458.0000000 magnetization 

 DIPCOR: dipole corrections for dipol
 direction  3 min pos     1,
 dipolmoment           0.000000      0.000000     -0.000256 electrons x Angstroem
 Tr[quadrupol]     -6318.706890

 energy correction for charged system         0.000000 eV
 dipol+quadrupol energy correction           -0.000000 eV
 added-field ion interaction          0.002074 eV  (added to PSCEN)


 Free energy of the ion-electron system (eV)
  ---------------------------------------------------
  alpha Z        PSCENC =       907.96617802
  Ewald energy   TEWEN  =    137143.22463369
  -Hartree energ DENC   =   -173242.07343078
  -exchange      EXHF   =         0.00000000
  -V(xc)+E(xc)   XCENC  =      1766.59592806
  PAW double counting   =     32340.89285313   -36127.75492224
  entropy T*S    EENTRO =        -0.00000000
  eigenvalues    EBANDS =    -11411.63743748
  atomic energy  EATOM  =     48196.57542979
  ---------------------------------------------------
  free energy    TOTEN  =      -426.21076782 eV

  energy without entropy =     -426.21076782  energy(sigma->0) =     -426.21076782


--------------------------------------------------------------------------------------------------------




--------------------------------------- Iteration      1(   4)  ---------------------------------------


    TRIAL :  cpu time      4.4691: real time      4.4698
    CORREC:  cpu time      0.0003: real time      0.0003
    --------------------------------------------
      LOOP:  cpu time      4.4833: real time      4.4843

 eigenvalue-minimisations  :  3200
 total energy-change (2. order) :-0.5882049E+01  (-0.5875217E+01)
 number of electron     458.0000000 magnetization 
 augmentation part      458.0000000 magnetization 

 DIPCOR: dipole corrections for dipol
 direction  3 min pos     1,
 dipolmoment           0.000000      0.000000     -0.000256 electrons x Angstroem
 Tr[quadrupol]     -6318.706890

 energy correction for charged system         0.000000 eV
 dipol+quadrupol energy correction           -0.000000 eV
 added-field ion interaction          0.002074 eV  (added to PSCEN)


 Free energy of the ion-electron system (eV)
  ---------------------------------------------------
  alpha Z        PSCENC =       907.96617802
  Ewald energy   TEWEN  =    137143.22463369
  -Hartree energ DENC   =   -173242.07343078
  -exchange      EXHF   =         0.00000000
  -V(xc)+E(xc)   XCENC  =      1766.59592806
  PAW double counting   =     32340.89285313   -36127.75492224
  entropy T*S    EENTRO =        -0.00000000
  eigenvalues    EBANDS =    -11417.51948608
  atomic energy  EATOM  =     48196.57542979
  ---------------------------------------------------
  free energy    TOTEN  =      -432.09281642 eV

  energy without entropy =     -432.09281642  energy(sigma->0) =     -432.09281642


--------------------------------------------------------------------------------------------------------




--------------------------------------- Iteration      1(   5)  ---------------------------------------


    TRIAL :  cpu time      3.9660: real time      3.9661
    CORREC:  cpu time      0.0003: real time      0.0003
    CHARGE:  cpu time      0.0476: real time      0.0480
    --------------------------------------------
      LOOP:  cpu time      4.0285: real time      4.0293

 eigenvalue-minimisations  :  3072
 total energy-change (2. order) :-0.7591051E-01  (-0.7590750E-01)
 number of electron     457.9999543 magnetization 
 augmentation part      159.7011279 magnetization 

 DIPCOR: dipole corrections for dipol
 direction  3 min pos     1,
 dipolmoment           0.000000      0.000000     -0.000256 electrons x Angstroem
 Tr[quadrupol]     -6318.706890

 energy correction for charged system         0.000000 eV
 dipol+quadrupol energy correction           -0.000000 eV
 added-field ion interaction          0.002074 eV  (added to PSCEN)


 Free energy of the ion-electron system (eV)
  ---------------------------------------------------
  alpha Z        PSCENC =       907.96617802
  Ewald energy   TEWEN  =    137143.22463369
  -Hartree energ DENC   =   -173242.07343078
  -exchange      EXHF   =         0.00000000
  -V(xc)+E(xc)   XCENC  =      1766.59592806
  PAW double counting   =     32340.89285313   -36127.75492224
  entropy T*S    EENTRO =        -0.00000000
  eigenvalues    EBANDS =    -11417.59539659
  atomic energy  EATOM  =     48196.57542979
  ---------------------------------------------------
  free energy    TOTEN  =      -432.16872692 eV

  energy without entropy =     -432.16872692  energy(sigma->0) =     -432.16872692


--------------------------------------------------------------------------------------------------------




--------------------------------------- Iteration      1(   6)  ---------------------------------------


    POTLOK:  cpu time      0.0584: real time      0.0584
    SETDIJ:  cpu time      0.1896: real time      0.1896
    TRIAL :  cpu time      1.1533: real time      1.1542
    CORREC:  cpu time      0.8197: real time      0.8207
    CHARGE:  cpu time      0.0378: real time      0.0378
    --------------------------------------------
      LOOP:  cpu time      2.2729: real time      2.2750

 eigenvalue-minimisations  :     0
 total energy-change (2. order) : 0.1727660E+03  (-0.9557327E+02)
 number of electron     457.9999550 magnetization 
 augmentation part      156.7870531 magnetization 

 DIPCOR: dipole corrections for dipol
 direction  3 min pos     1,
 dipolmoment           0.000000      0.000000      0.174232 electrons x Angstroem
 Tr[quadrupol]     -6356.217607

 energy correction for charged system         0.000000 eV
 dipol+quadrupol energy correction           -0.001807 eV
 added-field ion interaction         -1.410783 eV  (added to PSCEN)


 Free energy of the ion-electron system (eV)
  ---------------------------------------------------
  alpha Z        PSCENC =       904.51287798
  Ewald energy   TEWEN  =    137143.22463369
  -Hartree energ DENC   =   -177130.92935319
  -exchange      EXHF   =         0.00000000
  -V(xc)+E(xc)   XCENC  =      1890.20480063
  PAW double counting   =     37145.85997817   -40892.04540206
  entropy T*S    EENTRO =        -0.00000000
  eigenvalues    EBANDS =     -7516.80573190
  atomic energy  EATOM  =     48196.57542979
  ---------------------------------------------------
  free energy    TOTEN  =      -259.40276689 eV

  energy without entropy =     -259.40276689  energy(sigma->0) =     -259.40276689


--------------------------------------------------------------------------------------------------------




--------------------------------------- Iteration      1(   7)  ---------------------------------------


    POTLOK:  cpu time      0.0549: real time      0.0549
    SETDIJ:  cpu time      0.1895: real time      0.1895
    TRIAL :  cpu time      0.9882: real time      0.9882
    CORREC:  cpu time      0.7945: real time      0.7945
    CHARGE:  cpu time      0.0376: real time      0.0376
    --------------------------------------------
      LOOP:  cpu time      2.0714: real time      2.0792

 eigenvalue-minimisations  :     0
 total energy-change (2. order) :-0.9594366E+02  (-0.6703336E+01)
 number of electron     457.9999554 magnetization 
 augmentation part      154.9347741 magnetization 

 DIPCOR: dipole corrections for dipol
 direction  3 min pos     1,
 dipolmoment           0.000000      0.000000      0.158202 electrons x Angstroem
 Tr[quadrupol]     -6361.198143

 energy correction for charged system         0.000000 eV
 dipol+quadrupol energy correction           -0.001490 eV
 added-field ion interaction         -1.280984 eV  (added to PSCEN)


 Free energy of the ion-electron system (eV)
  ---------------------------------------------------
  alpha Z        PSCENC =       906.31733918
  Ewald energy   TEWEN  =    137143.22463369
  -Hartree energ DENC   =   -175293.86422085
  -exchange      EXHF   =         0.00000000
  -V(xc)+E(xc)   XCENC  =      1823.48815523
  PAW double counting   =     36035.93505469   -39851.68575881
  entropy T*S    EENTRO =        -0.00000000
  eigenvalues    EBANDS =     -9315.33706360
  atomic energy  EATOM  =     48196.57542979
  ---------------------------------------------------
  free energy    TOTEN  =      -355.34643068 eV

  energy without entropy =     -355.34643068  energy(sigma->0) =     -355.34643068


--------------------------------------------------------------------------------------------------------




--------------------------------------- Iteration      1(   8)  ---------------------------------------


    POTLOK:  cpu time      0.0544: real time      0.0544
    SETDIJ:  cpu time      0.1896: real time      0.1896
    TRIAL :  cpu time      0.9906: real time      0.9906
    CORREC:  cpu time      0.7979: real time      0.7979
    CHARGE:  cpu time      0.0375: real time      0.0375
    --------------------------------------------
      LOOP:  cpu time      2.0841: real time      2.0845

 eigenvalue-minimisations  :     0
 total energy-change (2. order) :-0.6720433E+01  (-0.4051777E+01)
 number of electron     457.9999554 magnetization 
 augmentation part      155.0454600 magnetization 

 DIPCOR: dipole corrections for dipol
 direction  3 min pos     1,
 dipolmoment           0.000000      0.000000      0.112133 electrons x Angstroem
 Tr[quadrupol]     -6359.722262

 energy correction for charged system         0.000000 eV
 dipol+quadrupol energy correction           -0.000749 eV
 added-field ion interaction         -0.907961 eV  (added to PSCEN)


 Free energy of the ion-electron system (eV)
  ---------------------------------------------------
  alpha Z        PSCENC =       906.79970305
  Ewald energy   TEWEN  =    137143.22463369
  -Hartree energ DENC   =   -175184.90119589
  -exchange      EXHF   =         0.00000000
  -V(xc)+E(xc)   XCENC  =      1814.12539577
  PAW double counting   =     35924.17931244   -39670.64030409
  entropy T*S    EENTRO =        -0.00000000
  eigenvalues    EBANDS =     -9491.42983866
  atomic energy  EATOM  =     48196.57542979
  ---------------------------------------------------
  free energy    TOTEN  =      -362.06686391 eV

  energy without entropy =     -362.06686391  energy(sigma->0) =     -362.06686391


--------------------------------------------------------------------------------------------------------




--------------------------------------- Iteration      1(   9)  ---------------------------------------


    POTLOK:  cpu time      0.0549: real time      0.0549
    SETDIJ:  cpu time      0.1896: real time      0.1896
    TRIAL :  cpu time      0.9849: real time      0.9850
    CORREC:  cpu time      0.7939: real time      0.7940
    CHARGE:  cpu time      0.0378: real time      0.0378
    --------------------------------------------
      LOOP:  cpu time      2.0660: real time      2.0757

 eigenvalue-minimisations  :     0
 total energy-change (2. order) :-0.4012045E+01  (-0.1794388E+01)
 number of electron     457.9999554 magnetization 
 augmentation part      155.0942255 magnetization 

 DIPCOR: dipole corrections for dipol
 direction  3 min pos     1,
 dipolmoment           0.000000      0.000000      0.123830 electrons x Angstroem
 Tr[quadrupol]     -6354.613015

 energy correction for charged system         0.000000 eV
 dipol+quadrupol energy correction           -0.000913 eV
 added-field ion interaction         -1.002669 eV  (added to PSCEN)


 Free energy of the ion-electron system (eV)
  ---------------------------------------------------
  alpha Z        PSCENC =       907.17003398
  Ewald energy   TEWEN  =    137143.22463369
  -Hartree energ DENC   =   -175083.91218339
  -exchange      EXHF   =         0.00000000
  -V(xc)+E(xc)   XCENC  =      1813.81099486
  PAW double counting   =     35845.77045886   -39626.22549306
  entropy T*S    EENTRO =        -0.00000000
  eigenvalues    EBANDS =     -9562.49278359
  atomic energy  EATOM  =     48196.57542979
  ---------------------------------------------------
  free energy    TOTEN  =      -366.07890887 eV

  energy without entropy =     -366.07890887  energy(sigma->0) =     -366.07890887


--------------------------------------------------------------------------------------------------------




--------------------------------------- Iteration      1(  10)  ---------------------------------------


    POTLOK:  cpu time      0.0546: real time      0.0546
    SETDIJ:  cpu time      0.1899: real time      0.1899
    TRIAL :  cpu time      0.9952: real time      0.9952
    CORREC:  cpu time      0.8127: real time      0.8128
    CHARGE:  cpu time      0.0375: real time      0.0375
    --------------------------------------------
      LOOP:  cpu time      2.0948: real time      2.1044

 eigenvalue-minimisations  :     0
 total energy-change (2. order) :-0.1796608E+01  (-0.6526455E+00)
 number of electron     457.9999554 magnetization 
 augmentation part      155.0495364 magnetization 

 DIPCOR: dipole corrections for dipol
 direction  3 min pos     1,
 dipolmoment           0.000000      0.000000      0.149303 electrons x Angstroem
 Tr[quadrupol]     -6352.807218

 energy correction for charged system         0.000000 eV
 dipol+quadrupol energy correction           -0.001327 eV
 added-field ion interaction         -1.208934 eV  (added to PSCEN)


 Free energy of the ion-electron system (eV)
  ---------------------------------------------------
  alpha Z        PSCENC =       906.97035032
  Ewald energy   TEWEN  =    137143.22463369
  -Hartree energ DENC   =   -174943.80483600
  -exchange      EXHF   =         0.00000000
  -V(xc)+E(xc)   XCENC  =      1812.42630721
  PAW double counting   =     35736.18305154   -39526.11422447
  entropy T*S    EENTRO =        -0.00000000
  eigenvalues    EBANDS =     -9693.33622888
  atomic energy  EATOM  =     48196.57542979
  ---------------------------------------------------
  free energy    TOTEN  =      -367.87551679 eV

  energy without entropy =     -367.87551679  energy(sigma->0) =     -367.87551679


--------------------------------------------------------------------------------------------------------




--------------------------------------- Iteration      1(  11)  ---------------------------------------


    POTLOK:  cpu time      0.0544: real time      0.0544
    SETDIJ:  cpu time      0.1895: real time      0.1895
    TRIAL :  cpu time      0.9885: real time      0.9886
    CORREC:  cpu time      0.7969: real time      0.7973
    CHARGE:  cpu time      0.0376: real time      0.0376
    --------------------------------------------
      LOOP:  cpu time      2.0724: real time      2.0815

 eigenvalue-minimisations  :     0
 total energy-change (2. order) :-0.6533217E+00  (-0.2066806E+00)
 number of electron     457.9999554 magnetization 
 augmentation part      155.1202085 magnetization 

 DIPCOR: dipole corrections for dipol
 direction  3 min pos     1,
 dipolmoment           0.000000      0.000000      0.149608 electrons x Angstroem
 Tr[quadrupol]     -6352.797036

 energy correction for charged system         0.000000 eV
 dipol+quadrupol energy correction           -0.001332 eV
 added-field ion interaction         -1.211398 eV  (added to PSCEN)


 Free energy of the ion-electron system (eV)
  ---------------------------------------------------
  alpha Z        PSCENC =       906.77348773
  Ewald energy   TEWEN  =    137143.22463369
  -Hartree energ DENC   =   -174869.47830750
  -exchange      EXHF   =         0.00000000
  -V(xc)+E(xc)   XCENC  =      1811.29534054
  PAW double counting   =     35671.34353119   -39453.49409986
  entropy T*S    EENTRO =        -0.00000000
  eigenvalues    EBANDS =     -9774.76885406
  atomic energy  EATOM  =     48196.57542979
  ---------------------------------------------------
  free energy    TOTEN  =      -368.52883849 eV

  energy without entropy =     -368.52883849  energy(sigma->0) =     -368.52883849


--------------------------------------------------------------------------------------------------------




--------------------------------------- Iteration      1(  12)  ---------------------------------------


    POTLOK:  cpu time      0.0556: real time      0.0556
    SETDIJ:  cpu time      0.1893: real time      0.1893
    TRIAL :  cpu time      0.9889: real time      0.9890
    CORREC:  cpu time      0.7964: real time      0.7964
    CHARGE:  cpu time      0.0373: real time      0.0373
    --------------------------------------------
      LOOP:  cpu time      2.0734: real time      2.0821

 eigenvalue-minimisations  :     0
 total energy-change (2. order) :-0.2066807E+00  (-0.6114992E-01)
 number of electron     457.9999554 magnetization 
 augmentation part      155.2050700 magnetization 

 DIPCOR: dipole corrections for dipol
 direction  3 min pos     1,
 dipolmoment           0.000000      0.000000      0.144546 electrons x Angstroem
 Tr[quadrupol]     -6352.979478

 energy correction for charged system         0.000000 eV
 dipol+quadrupol energy correction           -0.001244 eV
 added-field ion interaction         -1.170416 eV  (added to PSCEN)


 Free energy of the ion-electron system (eV)
  ---------------------------------------------------
  alpha Z        PSCENC =       906.75139531
  Ewald energy   TEWEN  =    137143.22463369
  -Hartree energ DENC   =   -174864.42282515
  -exchange      EXHF   =         0.00000000
  -V(xc)+E(xc)   XCENC  =      1811.28892396
  PAW double counting   =     35655.28566384   -39435.50422534
  entropy T*S    EENTRO =        -0.00000000
  eigenvalues    EBANDS =     -9781.93451532
  atomic energy  EATOM  =     48196.57542979
  ---------------------------------------------------
  free energy    TOTEN  =      -368.73551923 eV

  energy without entropy =     -368.73551923  energy(sigma->0) =     -368.73551923


--------------------------------------------------------------------------------------------------------




--------------------------------------- Iteration      1(  13)  ---------------------------------------


    POTLOK:  cpu time      0.0575: real time      0.0575
    SETDIJ:  cpu time      0.1897: real time      0.1897
    TRIAL :  cpu time      0.9885: real time      0.9885
    CORREC:  cpu time      0.7998: real time      0.7998
    CHARGE:  cpu time      0.0373: real time      0.0373
    --------------------------------------------
      LOOP:  cpu time      2.0773: real time      2.0872

 eigenvalue-minimisations  :     0
 total energy-change (2. order) :-0.6115743E-01  (-0.2170969E-01)
 number of electron     457.9999554 magnetization 
 augmentation part      155.2308099 magnetization 

 DIPCOR: dipole corrections for dipol
 direction  3 min pos     1,
 dipolmoment           0.000000      0.000000      0.140797 electrons x Angstroem
 Tr[quadrupol]     -6353.117890

 energy correction for charged system         0.000000 eV
 dipol+quadrupol energy correction           -0.001180 eV
 added-field ion interaction         -1.140053 eV  (added to PSCEN)


 Free energy of the ion-electron system (eV)
  ---------------------------------------------------
  alpha Z        PSCENC =       906.79563432
  Ewald energy   TEWEN  =    137143.22463369
  -Hartree energ DENC   =   -174873.81496076
  -exchange      EXHF   =         0.00000000
  -V(xc)+E(xc)   XCENC  =      1811.44365507
  PAW double counting   =     35653.36899914   -39436.14642064
  entropy T*S    EENTRO =        -0.00000000
  eigenvalues    EBANDS =     -9770.24364728
  atomic energy  EATOM  =     48196.57542979
  ---------------------------------------------------
  free energy    TOTEN  =      -368.79667666 eV

  energy without entropy =     -368.79667666  energy(sigma->0) =     -368.79667666


--------------------------------------------------------------------------------------------------------




--------------------------------------- Iteration      1(  14)  ---------------------------------------


    POTLOK:  cpu time      0.0541: real time      0.0541
    SETDIJ:  cpu time      0.1897: real time      0.1897
    TRIAL :  cpu time      0.9862: real time      0.9862
    CORREC:  cpu time      0.7949: real time      0.7949
    CHARGE:  cpu time      0.0373: real time      0.0374
    --------------------------------------------
      LOOP:  cpu time      2.0667: real time      2.0765

 eigenvalue-minimisations  :     0
 total energy-change (2. order) :-0.2171699E-01  (-0.8689987E-02)
 number of electron     457.9999554 magnetization 
 augmentation part      155.2227497 magnetization 

 DIPCOR: dipole corrections for dipol
 direction  3 min pos     1,
 dipolmoment           0.000000      0.000000      0.138523 electrons x Angstroem
 Tr[quadrupol]     -6353.274050

 energy correction for charged system         0.000000 eV
 dipol+quadrupol energy correction           -0.001142 eV
 added-field ion interaction         -1.121644 eV  (added to PSCEN)


 Free energy of the ion-electron system (eV)
  ---------------------------------------------------
  alpha Z        PSCENC =       906.82910128
  Ewald energy   TEWEN  =    137143.22463369
  -Hartree energ DENC   =   -174878.10702797
  -exchange      EXHF   =         0.00000000
  -V(xc)+E(xc)   XCENC  =      1811.42360987
  PAW double counting   =     35652.86299958   -39436.77601206
  entropy T*S    EENTRO =        -0.00000000
  eigenvalues    EBANDS =     -9764.85112782
  atomic energy  EATOM  =     48196.57542979
  ---------------------------------------------------
  free energy    TOTEN  =      -368.81839365 eV

  energy without entropy =     -368.81839365  energy(sigma->0) =     -368.81839365


--------------------------------------------------------------------------------------------------------




--------------------------------------- Iteration      1(  15)  ---------------------------------------


    POTLOK:  cpu time      0.0543: real time      0.0543
    SETDIJ:  cpu time      0.1899: real time      0.1899
    TRIAL :  cpu time      0.9884: real time      0.9884
    CORREC:  cpu time      0.7954: real time      0.7955
    CHARGE:  cpu time      0.0375: real time      0.0375
    --------------------------------------------
      LOOP:  cpu time      2.0796: real time      2.0798

 eigenvalue-minimisations  :     0
 total energy-change (2. order) :-0.8692624E-02  (-0.3731738E-02)
 number of electron     457.9999554 magnetization 
 augmentation part      155.2152906 magnetization 

 DIPCOR: dipole corrections for dipol
 direction  3 min pos     1,
 dipolmoment           0.000000      0.000000      0.137420 electrons x Angstroem
 Tr[quadrupol]     -6353.420076

 energy correction for charged system         0.000000 eV
[...]
      0.000000  4.220492 13.835443            0           0           0  
      2.109050  2.109050 13.834467            0           0           0  
      4.220492  6.330738  7.500000            0           0           0  
      6.330738  0.000000  7.500000            0           0           0  
      4.220492  0.000000  9.610246            0           0           0  
      6.330738  6.330738  9.610246            0           0           0  
      4.220492  6.327545 11.736589            0           0           0  
      6.330226  0.000000 11.733682            0           0           0  
      4.220492  0.000000 13.835443            0           0           0  
      6.331934  6.331934 13.834467            0           0           0  
      4.220492  2.110246  7.500000            0           0           0  
      6.330738  4.220492  7.500000            0           0           0  
      4.220492  4.220492  9.610246            0           0           0  
      6.330738  2.110246  9.610246            0           0           0  
      4.220492  2.113440 11.736589            0           0           0  
      6.327545  4.220492 11.736589            0           0           0  
      4.220492  4.220492 13.878140            0           0           0  
      6.331934  2.109050 13.834467            0           0           0  
      0.000000  6.330738  9.610246            0           0           0  
      2.110246  0.000000  9.610246            0           0           0  
      0.000000  0.000000  7.500000            0           0           0  
      2.110246  6.330738  7.500000            0           0           0  
      0.000000  6.332583 13.885868            0           0           0  
      2.108402  0.000000 13.885868            0           0           0  
      0.000000  0.000000 11.727851            0           0           0  
      2.109788  6.331196 11.728901            0           0           0  
      0.000000  2.110246  9.610246            0           0           0  
      2.110246  4.220492  9.610246            0           0           0  
      0.000000  4.220492  7.500000            0           0           0  
      2.110246  2.110246  7.500000            0           0           0  
      0.000000  2.108402 13.885868            0           0           0  
      2.100309  4.220492 13.883812            0           0           0  
      0.000000  4.220492 11.726844            0           0           0  
      2.109788  2.109788 11.728901            0           0           0  
      4.220492  6.330738  9.610246            0           0           0  
      6.330738  0.000000  9.610246            0           0           0  
      4.220492  0.000000  7.500000            0           0           0  
      6.330738  6.330738  7.500000            0           0           0  
      4.220492  6.340676 13.883812            0           0           0  
      6.332583  0.000000 13.885868            0           0           0  
      4.220492  0.000000 11.726844            0           0           0  
      6.331196  6.331196 11.728901            0           0           0  
      4.220492  2.110246  9.610246            0           0           0  
      6.330738  4.220492  9.610246            0           0           0  
      4.220492  4.220492  7.500000            0           0           0  
      6.330738  2.110246  7.500000            0           0           0  
      4.220492  2.100309 13.883812            0           0           0  
      6.340676  4.220492 13.883812            0           0           0  
      4.220492  4.220492 11.736841            0           0           0  
      6.331196  2.109788 11.728901            0           0           0  

   4 f  =    2.932774 THz    18.427165 2PiTHz   97.826824 cm-1    12.128975 meV
             X         Y         Z           dx          dy          dz
      4.220492  4.220492 16.319163    -0.001096   -0.001233    0.654257  
      4.220492  4.220492 17.465982    -0.004403   -0.006372    0.756231  
      0.000000  6.330738  7.500000            0           0           0  
      2.110246  0.000000  7.500000            0           0           0  
      0.000000  0.000000  9.610246            0           0           0  
      2.110246  6.330738  9.610246            0           0           0  
      0.000000  6.330226 11.733682            0           0           0  
      2.110759  0.000000 11.733682            0           0           0  
      0.000000  0.000000 13.838217            0           0           0  
      2.109050  6.331934 13.834467            0           0           0  
      0.000000  2.110246  7.500000            0           0           0  
      2.110246  4.220492  7.500000            0           0           0  
      0.000000  4.220492  9.610246            0           0           0  
      2.110246  2.110246  9.610246            0           0           0  
      0.000000  2.110759 11.733682            0           0           0  
      2.113440  4.220492 11.736589            0           0           0  
      0.000000  4.220492 13.835443            0           0           0  
      2.109050  2.109050 13.834467            0           0           0  
      4.220492  6.330738  7.500000            0           0           0  
      6.330738  0.000000  7.500000            0           0           0  
      4.220492  0.000000  9.610246            0           0           0  
      6.330738  6.330738  9.610246            0           0           0  
      4.220492  6.327545 11.736589            0           0           0  
      6.330226  0.000000 11.733682            0           0           0  
      4.220492  0.000000 13.835443            0           0           0  
      6.331934  6.331934 13.834467            0           0           0  
      4.220492  2.110246  7.500000            0           0           0  
      6.330738  4.220492  7.500000            0           0           0  
      4.220492  4.220492  9.610246            0           0           0  
      6.330738  2.110246  9.610246            0           0           0  
      4.220492  2.113440 11.736589            0           0           0  
      6.327545  4.220492 11.736589            0           0           0  
      4.220492  4.220492 13.878140            0           0           0  
      6.331934  2.109050 13.834467            0           0           0  
      0.000000  6.330738  9.610246            0           0           0  
      2.110246  0.000000  9.610246            0           0           0  
      0.000000  0.000000  7.500000            0           0           0  
      2.110246  6.330738  7.500000            0           0           0  
      0.000000  6.332583 13.885868            0           0           0  
      2.108402  0.000000 13.885868            0           0           0  
      0.000000  0.000000 11.727851            0           0           0  
      2.109788  6.331196 11.728901            0           0           0  
      0.000000  2.110246  9.610246            0           0           0  
      2.110246  4.220492  9.610246            0           0           0  
      0.000000  4.220492  7.500000            0           0           0  
      2.110246  2.110246  7.500000            0           0           0  
      0.000000  2.108402 13.885868            0           0           0  
      2.100309  4.220492 13.883812            0           0           0  
      0.000000  4.220492 11.726844            0           0           0  
      2.109788  2.109788 11.728901            0           0           0  
      4.220492  6.330738  9.610246            0           0           0  
      6.330738  0.000000  9.610246            0           0           0  
      4.220492  0.000000  7.500000            0           0           0  
      6.330738  6.330738  7.500000            0           0           0  
      4.220492  6.340676 13.883812            0           0           0  
      6.332583  0.000000 13.885868            0           0           0  
      4.220492  0.000000 11.726844            0           0           0  
      6.331196  6.331196 11.728901            0           0           0  
      4.220492  2.110246  9.610246            0           0           0  
      6.330738  4.220492  9.610246            0           0           0  
      4.220492  4.220492  7.500000            0           0           0  
      6.330738  2.110246  7.500000            0           0           0  
      4.220492  2.100309 13.883812            0           0           0  
      6.340676  4.220492 13.883812            0           0           0  
      4.220492  4.220492 11.736841            0           0           0  
      6.331196  2.109788 11.728901            0           0           0  

   5 f/i=    0.984897 THz     6.188288 2PiTHz   32.852617 cm-1     4.073204 meV
             X         Y         Z           dx          dy          dz
      4.220492  4.220492 16.319163    -0.235014    0.270412    0.001218  
      4.220492  4.220492 17.465982    -0.612666    0.704473    0.001415  
      0.000000  6.330738  7.500000            0           0           0  
      2.110246  0.000000  7.500000            0           0           0  
      0.000000  0.000000  9.610246            0           0           0  
      2.110246  6.330738  9.610246            0           0           0  
      0.000000  6.330226 11.733682            0           0           0  
      2.110759  0.000000 11.733682            0           0           0  
      0.000000  0.000000 13.838217            0           0           0  
      2.109050  6.331934 13.834467            0           0           0  
      0.000000  2.110246  7.500000            0           0           0  
      2.110246  4.220492  7.500000            0           0           0  
      0.000000  4.220492  9.610246            0           0           0  
      2.110246  2.110246  9.610246            0           0           0  
      0.000000  2.110759 11.733682            0           0           0  
      2.113440  4.220492 11.736589            0           0           0  
      0.000000  4.220492 13.835443            0           0           0  
      2.109050  2.109050 13.834467            0           0           0  
      4.220492  6.330738  7.500000            0           0           0  
      6.330738  0.000000  7.500000            0           0           0  
      4.220492  0.000000  9.610246            0           0           0  
      6.330738  6.330738  9.610246            0           0           0  
      4.220492  6.327545 11.736589            0           0           0  
      6.330226  0.000000 11.733682            0           0           0  
      4.220492  0.000000 13.835443            0           0           0  
      6.331934  6.331934 13.834467            0           0           0  
      4.220492  2.110246  7.500000            0           0           0  
      6.330738  4.220492  7.500000            0           0           0  
      4.220492  4.220492  9.610246            0           0           0  
      6.330738  2.110246  9.610246            0           0           0  
      4.220492  2.113440 11.736589            0           0           0  
      6.327545  4.220492 11.736589            0           0           0  
      4.220492  4.220492 13.878140            0           0           0  
      6.331934  2.109050 13.834467            0           0           0  
      0.000000  6.330738  9.610246            0           0           0  
      2.110246  0.000000  9.610246            0           0           0  
      0.000000  0.000000  7.500000            0           0           0  
      2.110246  6.330738  7.500000            0           0           0  
      0.000000  6.332583 13.885868            0           0           0  
      2.108402  0.000000 13.885868            0           0           0  
      0.000000  0.000000 11.727851            0           0           0  
      2.109788  6.331196 11.728901            0           0           0  
      0.000000  2.110246  9.610246            0           0           0  
      2.110246  4.220492  9.610246            0           0           0  
      0.000000  4.220492  7.500000            0           0           0  
      2.110246  2.110246  7.500000            0           0           0  
      0.000000  2.108402 13.885868            0           0           0  
      2.100309  4.220492 13.883812            0           0           0  
      0.000000  4.220492 11.726844            0           0           0  
      2.109788  2.109788 11.728901            0           0           0  
      4.220492  6.330738  9.610246            0           0           0  
      6.330738  0.000000  9.610246            0           0           0  
      4.220492  0.000000  7.500000            0           0           0  
      6.330738  6.330738  7.500000            0           0           0  
      4.220492  6.340676 13.883812            0           0           0  
      6.332583  0.000000 13.885868            0           0           0  
      4.220492  0.000000 11.726844            0           0           0  
      6.331196  6.331196 11.728901            0           0           0  
      4.220492  2.110246  9.610246            0           0           0  
      6.330738  4.220492  9.610246            0           0           0  
      4.220492  4.220492  7.500000            0           0           0  
      6.330738  2.110246  7.500000            0           0           0  
      4.220492  2.100309 13.883812            0           0           0  
      6.340676  4.220492 13.883812            0           0           0  
      4.220492  4.220492 11.736841            0           0           0  
      6.331196  2.109788 11.728901            0           0           0  

   6 f/i=    1.026167 THz     6.447597 2PiTHz   34.229244 cm-1     4.243884 meV
             X         Y         Z           dx          dy          dz
      4.220492  4.220492 16.319163    -0.270840   -0.236512   -0.004964  
      4.220492  4.220492 17.465982    -0.704296   -0.612060   -0.005742  
      0.000000  6.330738  7.500000            0           0           0  
      2.110246  0.000000  7.500000            0           0           0  
      0.000000  0.000000  9.610246            0           0           0  
      2.110246  6.330738  9.610246            0           0           0  
      0.000000  6.330226 11.733682            0           0           0  
      2.110759  0.000000 11.733682            0           0           0  
      0.000000  0.000000 13.838217            0           0           0  
      2.109050  6.331934 13.834467            0           0           0  
      0.000000  2.110246  7.500000            0           0           0  
      2.110246  4.220492  7.500000            0           0           0  
      0.000000  4.220492  9.610246            0           0           0  
      2.110246  2.110246  9.610246            0           0           0  
      0.000000  2.110759 11.733682            0           0           0  
      2.113440  4.220492 11.736589            0           0           0  
      0.000000  4.220492 13.835443            0           0           0  
      2.109050  2.109050 13.834467            0           0           0  
      4.220492  6.330738  7.500000            0           0           0  
      6.330738  0.000000  7.500000            0           0           0  
      4.220492  0.000000  9.610246            0           0           0  
      6.330738  6.330738  9.610246            0           0           0  
      4.220492  6.327545 11.736589            0           0           0  
      6.330226  0.000000 11.733682            0           0           0  
      4.220492  0.000000 13.835443            0           0           0  
      6.331934  6.331934 13.834467            0           0           0  
      4.220492  2.110246  7.500000            0           0           0  
      6.330738  4.220492  7.500000            0           0           0  
      4.220492  4.220492  9.610246            0           0           0  
      6.330738  2.110246  9.610246            0           0           0  
      4.220492  2.113440 11.736589            0           0           0  
      6.327545  4.220492 11.736589            0           0           0  
      4.220492  4.220492 13.878140            0           0           0  
      6.331934  2.109050 13.834467            0           0           0  
      0.000000  6.330738  9.610246            0           0           0  
      2.110246  0.000000  9.610246            0           0           0  
      0.000000  0.000000  7.500000            0           0           0  
      2.110246  6.330738  7.500000            0           0           0  
      0.000000  6.332583 13.885868            0           0           0  
      2.108402  0.000000 13.885868            0           0           0  
      0.000000  0.000000 11.727851            0           0           0  
      2.109788  6.331196 11.728901            0           0           0  
      0.000000  2.110246  9.610246            0           0           0  
      2.110246  4.220492  9.610246            0           0           0  
      0.000000  4.220492  7.500000            0           0           0  
      2.110246  2.110246  7.500000            0           0           0  
      0.000000  2.108402 13.885868            0           0           0  
      2.100309  4.220492 13.883812            0           0           0  
      0.000000  4.220492 11.726844            0           0           0  
      2.109788  2.109788 11.728901            0           0           0  
      4.220492  6.330738  9.610246            0           0           0  
      6.330738  0.000000  9.610246            0           0           0  
      4.220492  0.000000  7.500000            0           0           0  
      6.330738  6.330738  7.500000            0           0           0  
      4.220492  6.340676 13.883812            0           0           0  
      6.332583  0.000000 13.885868            0           0           0  
      4.220492  0.000000 11.726844            0           0           0  
      6.331196  6.331196 11.728901            0           0           0  
      4.220492  2.110246  9.610246            0           0           0  
      6.330738  4.220492  9.610246            0           0           0  
      4.220492  4.220492  7.500000            0           0           0  
      6.330738  2.110246  7.500000            0           0           0  
      4.220492  2.100309 13.883812            0           0           0  
      6.340676  4.220492 13.883812            0           0           0  
      4.220492  4.220492 11.736841            0           0           0  
      6.331196  2.109788 11.728901            0           0           0  

 Finite differences POTIM=   1.0000000000000000E-002
     LOOP+:  cpu time     49.9776: real time     51.0587
    4ORBIT:  cpu time      0.0000: real time      0.0000

 total amount of memory used by VASP MPI-rank0    66858. kBytes
=======================================================================

   base      :      30000. kBytes
   nonl-proj :      17408. kBytes
   fftplans  :       4923. kBytes
   grid      :       8190. kBytes
   one-center:         73. kBytes
   wavefun   :       6264. kBytes

  
  
 General timing and accounting informations for this job:
 ========================================================
  
                  Total CPU time used (sec):      666.623
                            User time (sec):      663.084
                          System time (sec):        3.539
                         Elapsed time (sec):      681.310
  
                   Maximum memory used (kb):      163908.
                   Average memory used (kb):          N/A
  
                          Minor page faults:        35898
                          Major page faults:           53
                 Voluntary context switches:        20302
