 vasp.6.3.0 20Jan22 (build Mar 11 2022 13:48:16) complex

 executed on             LinuxIFC date 2023.12.26  17:11:20
 running on  304 total cores
 distrk:  each k-point on  304 cores,    1 groups
 distr:  one band on NCORE=   2 cores,  152 groups


--------------------------------------------------------------------------------------------------------


 INCAR:
   SYSTEM = MgO-rocksalt
   ISMEAR = 0
   SIGMA = 0.05
   EDIFF = 1E-5
   ALGO = ALL
   ISTART = 0
   IBRION = -1
   NSW = 0
   ISYM = 2
   ISIF = 2
   DIPOL = 0.5 0.5 0.5
   IDIPOL = 3
   LDIPOL = .TRUE.
   GGA = PE
   IVDW = 1
   VDW_C6 = 0.63 0.70
   VDW_R0 = 1.243 1.342
   ENCUT = 600
   PREC = Accurate
   LASPH = .TRUE.
   LREAL = .FALSE.
   ISPIN = 1
   NELM = 200
   NELMIN = 8
   NCORE = 2
   KPAR = 1
   LWAVE = .FALSE.
   LCHARG = .FALSE.

 POTCAR:    PAW_PBE Mg_pv 13Apr2007
 POTCAR:    PAW_PBE O 08Apr2002
 -----------------------------------------------------------------------------
|                                                                             |
|           W    W    AA    RRRRR   N    N  II  N    N   GGGG   !!!           |
|           W    W   A  A   R    R  NN   N  II  NN   N  G    G  !!!           |
|           W    W  A    A  R    R  N N  N  II  N N  N  G       !!!           |
|           W WW W  AAAAAA  RRRRR   N  N N  II  N  N N  G  GGG   !            |
|           WW  WW  A    A  R   R   N   NN  II  N   NN  G    G                |
|           W    W  A    A  R    R  N    N  II  N    N   GGGG   !!!           |
|                                                                             |
|     For optimal performance we recommend to set                             |
|       NCORE = 2 up to number-of-cores-per-socket                            |
|     NCORE specifies how many cores store one orbital (NPAR=cpu/NCORE).      |
|     This setting can greatly improve the performance of VASP for DFT.       |
|     The default, NCORE=1 might be grossly inefficient on modern             |
|     multi-core architectures or massively parallel machines. Do your        |
|     own testing! More info at https://www.vasp.at/wiki/index.php/NCORE      |
|     Unfortunately you need to use the default for GW and RPA                |
|     calculations (for HF NCORE is supported but not extensively tested      |
|     yet).                                                                   |
|                                                                             |
 -----------------------------------------------------------------------------

 POTCAR:    PAW_PBE Mg_pv 13Apr2007
   SHA256 =  f474ac0dd33840b9ae76c01d57fea79fdf77cdfbb07d5ade72c65f83c709b62b Mg_pv/POTCAR
   COPYR  = (c) Copyright 13Apr2007 Georg Kresse
   COPYR  = This file is part of the software VASP. Any use, copying, and all other rights are regul
   COPYR  = If you do not have a valid VASP license, you may not use, copy or distribute this file.
   VRHFIN =Mg: p6s2
   LEXCH  = PE
   EATOM  =  1056.7344 eV,   77.6678 Ry

   TITEL  = PAW_PBE Mg_pv 13Apr2007
   LULTRA =        F    use ultrasoft PP ?
   IUNSCR =        1    unscreen: 0-lin 1-nonlin 2-no
   RPACOR =    1.500    partial core radius
   POMASS =   24.305; ZVAL   =    8.000    mass and valenz
   RCORE  =    2.000    outmost cutoff radius
   RWIGS  =    2.000; RWIGS  =    1.058    wigner-seitz radius (au A)
   ENMAX  =  403.929; ENMIN  =  302.947 eV
   RCLOC  =    1.506    cutoff for local pot
   LCOR   =        T    correct aug charges
   LPAW   =        T    paw PP
   EAUG   =  758.780
   DEXC   =    0.000
   RMAX   =    2.045    core radius for proj-oper
   RAUG   =    1.300    factor for augmentation sphere
   RDEP   =    2.025    radius for radial grids
   RDEPT  =    1.557    core radius for aug-charge

   Atomic configuration
    5 entries
     n  l   j            E        occ.
     1  0  0.50     -1259.6230   2.0000
     2  0  0.50       -79.8442   2.0000
     2  1  1.50       -46.6121   6.0000
     3  0  0.50        -4.7055   2.0000
     3  2  1.50        -1.3606   0.0000
   Description
     l       E           TYP  RCUT    TYP  RCUT
     1    -46.6121073     23  1.600
     1      2.7211652     23  1.600
     0     -4.7054661     23  2.000
     0     61.2262170     23  2.000
     2     -1.3605826     23  2.000
  local pseudopotential read in
  partial core-charges read in
  partial kinetic energy density read in
  atomic valenz-charges read in
  non local Contribution for L=           1  read in
    real space projection operators read in
  non local Contribution for L=           1  read in
    real space projection operators read in
  non local Contribution for L=           0  read in
    real space projection operators read in
  non local Contribution for L=           0  read in
    real space projection operators read in
  non local Contribution for L=           2  read in
    real space projection operators read in
    PAW grid and wavefunctions read in

   number of l-projection  operators is LMAX  =           5
   number of lm-projection operators is LMMAX =          13

 POTCAR:    PAW_PBE O 08Apr2002
   SHA256 =  818f92134a0a090dccd8ba1447fa70422a3b330e708bb4f08108d8ae51209ddf O/POTCAR
   COPYR  = (c) Copyright 08Apr2002 Georg Kresse
   COPYR  = This file is part of the software VASP. Any use, copying, and all other rights are regul
   COPYR  = If you do not have a valid VASP license, you may not use, copy or distribute this file.
   VRHFIN =O: s2p4
   LEXCH  = PE
   EATOM  =   432.3788 eV,   31.7789 Ry

   TITEL  = PAW_PBE O 08Apr2002
   LULTRA =        F    use ultrasoft PP ?
   IUNSCR =        1    unscreen: 0-lin 1-nonlin 2-no
   RPACOR =    1.200    partial core radius
   POMASS =   16.000; ZVAL   =    6.000    mass and valenz
   RCORE  =    1.520    outmost cutoff radius
   RWIGS  =    1.550; RWIGS  =    0.820    wigner-seitz radius (au A)
   ENMAX  =  400.000; ENMIN  =  300.000 eV
   ICORE  =        2    local potential
   LCOR   =        T    correct aug charges
   LPAW   =        T    paw PP
   EAUG   =  605.392
   DEXC   =    0.000
   RMAX   =    1.553    core radius for proj-oper
   RAUG   =    1.300    factor for augmentation sphere
   RDEP   =    1.550    radius for radial grids
   RDEPT  =    1.329    core radius for aug-charge

   Atomic configuration
    4 entries
     n  l   j            E        occ.
     1  0  0.50      -514.6923   2.0000
     2  0  0.50       -23.9615   2.0000
     2  1  0.50        -9.0305   4.0000
     3  2  1.50        -9.5241   0.0000
   Description
     l       E           TYP  RCUT    TYP  RCUT
     0    -23.9615318     23  1.200
     0     -9.5240782     23  1.200
     1     -9.0304911     23  1.520
     1      8.1634956     23  1.520
     2     -9.5240782      7  1.500
  local pseudopotential read in
  partial core-charges read in
  partial kinetic energy density read in
  kinetic energy density of atom read in
  atomic valenz-charges read in
  non local Contribution for L=           0  read in
    real space projection operators read in
  non local Contribution for L=           0  read in
    real space projection operators read in
  non local Contribution for L=           1  read in
    real space projection operators read in
  non local Contribution for L=           1  read in
    real space projection operators read in
    PAW grid and wavefunctions read in

   number of l-projection  operators is LMAX  =           4
   number of lm-projection operators is LMMAX =           8

 -----------------------------------------------------------------------------
|                                                                             |
|               ----> ADVICE to this user running VASP <----                  |
|                                                                             |
|     You have a (more or less) 'large supercell' and for larger cells it     |
|     might be more efficient to use real-space projection operators.         |
|     Therefore, try LREAL= Auto in the INCAR file.                           |
|     Mind: For very accurate calculation, you might also keep the            |
|     reciprocal projection scheme (i.e. LREAL=.FALSE.).                      |
|                                                                             |
 -----------------------------------------------------------------------------

  PAW_PBE Mg_pv 13Apr2007               :
 energy of atom  1       EATOM=-1056.7344
 kinetic energy error for atom=    0.0221 (will be added to EATOM!!)
  PAW_PBE O 08Apr2002                   :
 energy of atom  2       EATOM= -432.3788
 kinetic energy error for atom=    0.0168 (will be added to EATOM!!)


 POSCAR: Mg  O
  positions in direct lattice
  No initial velocities read in
 exchange correlation table for  LEXCH =        8
   RHO(1)=    0.500       N(1)  =     2000
   RHO(2)=  100.500       N(2)  =     4000



--------------------------------------------------------------------------------------------------------


 ion  position               nearest neighbor table
   1  0.000  0.750  0.352-  33 2.11  35 2.11  36 2.11  43 2.11  52 2.11
   2  0.250  0.000  0.352-  34 2.11  35 2.11  36 2.11  44 2.11  51 2.11
   3  0.000  0.000  0.451-  35 2.11  34 2.11  33 2.11  41 2.11  50 2.11  39 2.12
   4  0.250  0.750  0.451-  36 2.11  34 2.11  33 2.11  42 2.11  49 2.11  40 2.12
   5  0.000  0.750  0.550-  47 2.11  40 2.11  56 2.11  39 2.11  33 2.12  37 2.15
   6  0.250  0.000  0.550-  55 2.11  48 2.11  40 2.11  39 2.11  34 2.12  38 2.15
   7  0.000  0.000  0.649-  37 2.11  38 2.11  45 2.11  54 2.11  39 2.11
   8  0.250  0.750  0.649-  40 2.11  38 2.11  37 2.11  46 2.11  53 2.11
   9  0.000  0.250  0.352-  41 2.11  35 2.11  43 2.11  44 2.11  60 2.11
  10  0.250  0.500  0.352-  42 2.11  36 2.11  43 2.11  44 2.11  59 2.11
  11  0.000  0.500  0.451-  43 2.11  41 2.11  42 2.11  33 2.11  58 2.11  47 2.12
  12  0.250  0.250  0.451-  44 2.11  41 2.11  42 2.11  34 2.11  57 2.11  48 2.12
  13  0.000  0.250  0.550-  47 2.11  48 2.11  64 2.11  39 2.11  41 2.12  45 2.15
  14  0.250  0.500  0.550-  63 2.11  48 2.11  40 2.11  47 2.11  42 2.13  46 2.15
  15  0.000  0.500  0.649-  46 2.10  62 2.10  47 2.11  45 2.11  37 2.11
  16  0.250  0.250  0.649-  48 2.11  45 2.11  38 2.11  46 2.11  61 2.11
  17  0.500  0.750  0.352-  49 2.11  36 2.11  51 2.11  52 2.11  59 2.11
  18  0.750  0.000  0.352-  50 2.11  35 2.11  51 2.11  52 2.11  60 2.11
  19  0.500  0.000  0.451-  51 2.11  49 2.11  50 2.11  34 2.11  57 2.11  55 2.12
  20  0.750  0.750  0.451-  52 2.11  49 2.11  50 2.11  33 2.11  58 2.11  56 2.12
  21  0.500  0.750  0.550-  63 2.11  56 2.11  40 2.11  55 2.11  49 2.13  53 2.15
  22  0.750  0.000  0.550-  55 2.11  56 2.11  64 2.11  39 2.11  50 2.12  54 2.15
  23  0.500  0.000  0.649-  53 2.10  61 2.10  55 2.11  38 2.11  54 2.11
  24  0.750  0.750  0.649-  56 2.11  54 2.11  37 2.11  53 2.11  62 2.11
  25  0.500  0.250  0.352-  57 2.11  51 2.11  44 2.11  59 2.11  60 2.11
  26  0.750  0.500  0.352-  58 2.11  52 2.11  43 2.11  59 2.11  60 2.11
  27  0.500  0.500  0.451-  59 2.11  49 2.11  57 2.11  58 2.11  42 2.11  63 2.13
  28  0.750  0.250  0.451-  60 2.11  50 2.11  57 2.11  58 2.11  41 2.11  64 2.12
  29  0.500  0.250  0.550-  63 2.11  48 2.11  64 2.11  55 2.11  57 2.13  61 2.15
  30  0.750  0.500  0.550-  63 2.11  56 2.11  64 2.11  47 2.11  58 2.13  62 2.15
  31  0.500  0.500  0.651-  46 2.12  53 2.12  61 2.12  62 2.12  63 2.14
  32  0.750  0.250  0.649-  64 2.11  54 2.11  45 2.11  62 2.11  61 2.11
  33  0.000  0.750  0.451-   1 2.11   3 2.11   4 2.11  11 2.11  20 2.11   5 2.12
  34  0.250  0.000  0.451-   2 2.11   3 2.11   4 2.11  12 2.11  19 2.11   6 2.12
  35  0.000  0.000  0.352-   3 2.11   2 2.11   1 2.11   9 2.11  18 2.11
  36  0.250  0.750  0.352-   4 2.11   2 2.11   1 2.11  10 2.11  17 2.11
  37  0.000  0.750  0.651-   7 2.11   8 2.11  24 2.11  15 2.11   5 2.15
  38  0.250  0.000  0.651-   7 2.11   8 2.11  16 2.11  23 2.11   6 2.15
  39  0.000  0.000  0.550-   7 2.11   6 2.11   5 2.11  13 2.11  22 2.11   3 2.12
  40  0.250  0.750  0.550-   8 2.11   6 2.11   5 2.11  14 2.11  21 2.11   4 2.12
  41  0.000  0.250  0.451-   9 2.11   3 2.11  11 2.11  12 2.11  28 2.11  13 2.12
  42  0.250  0.500  0.451-  10 2.11   4 2.11  11 2.11  12 2.11  27 2.11  14 2.13
  43  0.000  0.500  0.352-  11 2.11   9 2.11  10 2.11   1 2.11  26 2.11
  44  0.250  0.250  0.352-  12 2.11   9 2.11  10 2.11   2 2.11  25 2.11
  45  0.000  0.250  0.651-   7 2.11  16 2.11  32 2.11  15 2.11  13 2.15
  46  0.249  0.500  0.651-  15 2.10   8 2.11  16 2.11  31 2.12  14 2.15
  47  0.000  0.500  0.550-  15 2.11  13 2.11   5 2.11  14 2.11  30 2.11  11 2.12
  48  0.250  0.250  0.550-  16 2.11  13 2.11   6 2.11  14 2.11  29 2.11  12 2.12
  49  0.500  0.750  0.451-  17 2.11   4 2.11  19 2.11  20 2.11  27 2.11  21 2.13
  50  0.750  0.000  0.451-  18 2.11   3 2.11  19 2.11  20 2.11  28 2.11  22 2.12
  51  0.500  0.000  0.352-  19 2.11  17 2.11  18 2.11   2 2.11  25 2.11
  52  0.750  0.750  0.352-  20 2.11  17 2.11  18 2.11   1 2.11  26 2.11
  53  0.500  0.751  0.651-  23 2.10   8 2.11  24 2.11  31 2.12  21 2.15
  54  0.750  0.000  0.651-   7 2.11  24 2.11  32 2.11  23 2.11  22 2.15
  55  0.500  0.000  0.550-  23 2.11  22 2.11   6 2.11  21 2.11  29 2.11  19 2.12
  56  0.750  0.750  0.550-  24 2.11  22 2.11   5 2.11  30 2.11  21 2.11  20 2.12
  57  0.500  0.250  0.451-  25 2.11  19 2.11  12 2.11  27 2.11  28 2.11  29 2.13
  58  0.750  0.500  0.451-  26 2.11  20 2.11  11 2.11  27 2.11  28 2.11  30 2.13
  59  0.500  0.500  0.352-  27 2.11  17 2.11  25 2.11  26 2.11  10 2.11
  60  0.750  0.250  0.352-  28 2.11  18 2.11  25 2.11  26 2.11   9 2.11
  61  0.500  0.249  0.651-  23 2.10  16 2.11  32 2.11  31 2.12  29 2.15
  62  0.751  0.500  0.651-  15 2.10  24 2.11  32 2.11  31 2.12  30 2.15
  63  0.500  0.500  0.550-  14 2.11  21 2.11  29 2.11  30 2.11  27 2.13  31 2.14
  64  0.750  0.250  0.550-  32 2.11  22 2.11  13 2.11  30 2.11  29 2.11  28 2.12

  LATTYP: Found a simple tetragonal cell.
 ALAT       =     8.4409846542
 C/A-ratio  =     2.5270438657

  Lattice vectors:

 A1 = (   8.4409846542,   0.0000000000,   0.0000000000)
 A2 = (   0.0000000000,   8.4409846542,   0.0000000000)
 A3 = (   0.0000000000,   0.0000000000,  21.3307384906)


Analysis of symmetry for initial positions (statically):
=====================================================================
 Subroutine PRICEL returns:
 Original cell was already a primitive cell.


 Routine SETGRP: Setting up the symmetry group for a
 simple tetragonal supercell.


 Subroutine GETGRP returns: Found  8 space group operations
 (whereof  8 operations were pure point group operations)
 out of a pool of 16 trial point group operations.


The static configuration has the point symmetry C_4v.


Analysis of symmetry for dynamics (positions and initial velocities):
=====================================================================
 Subroutine PRICEL returns:
 Original cell was already a primitive cell.


 Routine SETGRP: Setting up the symmetry group for a
 simple tetragonal supercell.


 Subroutine GETGRP returns: Found  8 space group operations
 (whereof  8 operations were pure point group operations)
 out of a pool of 16 trial point group operations.


The dynamic configuration has the point symmetry C_4v.


Analysis of constrained symmetry for selective dynamics:
=====================================================================
 Subroutine PRICEL returns:
 Original cell was already a primitive cell.


 Routine SETGRP: Setting up the symmetry group for a
 simple tetragonal supercell.


 Subroutine GETGRP returns: Found  8 space group operations
 (whereof  8 operations were pure point group operations)
 out of a pool of 16 trial point group operations.


The constrained configuration has the point symmetry C_4v.


 Subroutine INISYM returns: Found  8 space group operations
 (whereof  8 operations are pure point group operations),
 and found     1 'primitive' translations


----------------------------------------------------------------------------------------

                                     Primitive cell

  volume of cell :    1519.8199

  direct lattice vectors                    reciprocal lattice vectors
     8.440984654  0.000000000  0.000000000     0.118469591  0.000000000  0.000000000
     0.000000000  8.440984654  0.000000000     0.000000000  0.118469591  0.000000000
     0.000000000  0.000000000 21.330738491     0.000000000  0.000000000  0.046880702

  length of vectors
     8.440984654  8.440984654 21.330738491     0.118469591  0.118469591  0.046880702

  position of ions in fractional coordinates (direct lattice)
     0.000000000  0.750000000  0.351605267
     0.250000000  0.000000000  0.351605267
     0.000000000  0.000000000  0.450535089
     0.250000000  0.750000000  0.450535089
     0.000000000  0.749939268  0.550083239
     0.250060732  0.000000000  0.550083239
     0.000000000  0.000000000  0.648745309
     0.249858327  0.750141673  0.648569547
     0.000000000  0.250000000  0.351605267
     0.250000000  0.500000000  0.351605267
     0.000000000  0.500000000  0.450535089
     0.250000000  0.250000000  0.450535089
     0.000000000  0.250060732  0.550083239
     0.250378379  0.500000000  0.550219524
     0.000000000  0.500000000  0.648615280
     0.249858327  0.249858327  0.648569547
     0.500000000  0.750000000  0.351605267
     0.750000000  0.000000000  0.351605267
     0.500000000  0.000000000  0.450535089
     0.750000000  0.750000000  0.450535089
     0.500000000  0.749621621  0.550219524
     0.749939268  0.000000000  0.550083239
     0.500000000  0.000000000  0.648615280
     0.750141673  0.750141673  0.648569547
     0.500000000  0.250000000  0.351605267
     0.750000000  0.500000000  0.351605267
     0.500000000  0.500000000  0.450535089
     0.750000000  0.250000000  0.450535089
     0.500000000  0.250378379  0.550219524
     0.749621621  0.500000000  0.550219524
     0.500000000  0.500000000  0.650616960
     0.750141673  0.249858327  0.648569547
     0.000000000  0.750000000  0.450535089
     0.250000000  0.000000000  0.450535089
     0.000000000  0.000000000  0.351605267
     0.250000000  0.750000000  0.351605267
     0.000000000  0.750218533  0.650979255
     0.249781467  0.000000000  0.650979255
     0.000000000  0.000000000  0.549809890
     0.249945770  0.750054230  0.549859113
     0.000000000  0.250000000  0.450535089
     0.250000000  0.500000000  0.450535089
     0.000000000  0.500000000  0.351605267
     0.250000000  0.250000000  0.351605267
     0.000000000  0.249781467  0.650979255
     0.248822710  0.500000000  0.650882872
     0.000000000  0.500000000  0.549762666
     0.249945770  0.249945770  0.549859113
     0.500000000  0.750000000  0.450535089
     0.750000000  0.000000000  0.450535089
     0.500000000  0.000000000  0.351605267
     0.750000000  0.750000000  0.351605267
     0.500000000  0.751177290  0.650882872
     0.750218533  0.000000000  0.650979255
     0.500000000  0.000000000  0.549762666
     0.750054230  0.750054230  0.549859113
     0.500000000  0.250000000  0.450535089
     0.750000000  0.500000000  0.450535089
     0.500000000  0.500000000  0.351605267
     0.750000000  0.250000000  0.351605267
     0.500000000  0.248822710  0.650882872
     0.751177290  0.500000000  0.650882872
     0.500000000  0.500000000  0.550231357
     0.750054230  0.249945770  0.549859113

  ion indices of the primitive-cell ions
   primitive index   ion index
                 1           1
                 2           2
                 3           3
                 4           4
                 5           5
                 6           6
                 7           7
                 8           8
                 9           9
                10          10
                11          11
                12          12
                13          13
                14          14
                15          15
                16          16
                17          17
                18          18
                19          19
                20          20
                21          21
                22          22
                23          23
                24          24
                25          25
                26          26
                27          27
                28          28
                29          29
                30          30
                31          31
                32          32
                33          33
                34          34
                35          35
                36          36
                37          37
                38          38
                39          39
                40          40
                41          41
                42          42
                43          43
                44          44
                45          45
                46          46
                47          47
                48          48
                49          49
                50          50
                51          51
                52          52
                53          53
                54          54
                55          55
                56          56
                57          57
                58          58
                59          59
                60          60
                61          61
                62          62
                63          63
                64          64

----------------------------------------------------------------------------------------



 KPOINTS: pymatgen v2020.8.13 with grid density =

Automatic generation of k-mesh.
 Grid dimensions read from file:
 generate k-points for:    2    2    1

 Generating k-lattice:

  Cartesian coordinates                     Fractional coordinates (reciprocal lattice)
     0.059234796  0.000000000  0.000000000     0.500000000  0.000000000  0.000000000
     0.000000000  0.059234796  0.000000000     0.000000000  0.500000000  0.000000000
     0.000000000  0.000000000  0.046880702     0.000000000  0.000000000  1.000000000

  Length of vectors
     0.059234796  0.059234796  0.046880702

  Shift w.r.t. Gamma in fractional coordinates (k-lattice)
     0.000000000  0.000000000  0.000000000


 Subroutine IBZKPT returns following result:
 ===========================================

 Found      3 irreducible k-points:

 Following reciprocal coordinates:
            Coordinates               Weight
  0.000000  0.000000  0.000000      1.000000
  0.500000  0.000000  0.000000      2.000000
  0.500000  0.500000  0.000000      1.000000

 Following cartesian coordinates:
            Coordinates               Weight
  0.000000  0.000000  0.000000      1.000000
  0.059235  0.000000  0.000000      2.000000
  0.059235  0.059235  0.000000      1.000000



--------------------------------------------------------------------------------------------------------




 Dimension of arrays:
   k-points           NKPTS =      3   k-points in BZ     NKDIM =      3   number of bands    NBANDS=    304
   number of dos      NEDOS =    301   number of ions     NIONS =     64
   non local maximal  LDIM  =      5   non local SUM 2l+1 LMDIM =     13
   total plane-waves  NPLWV = 882000
   max r-space proj   IRMAX =      1   max aug-charges    IRDMAX=  11635
   dimension x,y,z NGX =    70 NGY =   70 NGZ =  180
   dimension x,y,z NGXF=   140 NGYF=  140 NGZF=  360
   support grid    NGXF=   140 NGYF=  140 NGZF=  360
   ions per type =              32  32
   NGX,Y,Z   is equivalent  to a cutoff of  13.79, 13.79, 14.03 a.u.
   NGXF,Y,Z  is equivalent  to a cutoff of  27.57, 27.57, 28.06 a.u.

 SYSTEM =  MgO-rocksalt
 POSCAR =  Mg  O

 Startparameter for this run:
   NWRITE =      2    write-flag & timer
   PREC   = accura    normal or accurate (medium, high low for compatibility)
   ISTART =      0    job   : 0-new  1-cont  2-samecut
   ICHARG =      2    charge: 1-file 2-atom 10-const
   ISPIN  =      1    spin polarized calculation?
   LNONCOLLINEAR =      F non collinear calculations
   LSORBIT =      F    spin-orbit coupling
   INIWAV =      1    electr: 0-lowe 1-rand  2-diag
   LASPH  =      T    aspherical Exc in radial PAW
 Electronic Relaxation 1
   ENCUT  =  600.0 eV  44.10 Ry    6.64 a.u.  16.86 16.86 42.60*2*pi/ulx,y,z
   ENINI  =  600.0     initial cutoff
   ENAUG  =  758.8 eV  augmentation charge cutoff
   NELM   =    200;   NELMIN=  8; NELMDL= -5     # of ELM steps
   EDIFF  = 0.1E-04   stopping-criterion for ELM
   LREAL  =      F    real-space projection
   NLSPLINE    = F    spline interpolate recip. space projectors
   LCOMPAT=      F    compatible to vasp.4.4
   GGA_COMPAT  = T    GGA compatible to vasp.4.4-vasp.4.6
   LMAXPAW     = -100 max onsite density
   LMAXMIX     =    2 max onsite mixed and CHGCAR
   VOSKOWN=      0    Vosko Wilk Nusair interpolation
   ROPT   =    0.00000   0.00000
 Ionic relaxation
   EDIFFG = 0.1E-03   stopping-criterion for IOM
   NSW    =      0    number of steps for IOM
   NBLOCK =      1;   KBLOCK =      1    inner block; outer block
   IBRION =     -1    ionic relax: 0-MD 1-quasi-New 2-CG
   NFREE  =      0    steps in history (QN), initial steepest desc. (CG)
   ISIF   =      2    stress and relaxation
   IWAVPR =     10    prediction:  0-non 1-charg 2-wave 3-comb
   ISYM   =      2    0-nonsym 1-usesym 2-fastsym
   LCORR  =      T    Harris-Foulkes like correction to forces

   POTIM  = 0.5000    time-step for ionic-motion
   TEIN   =    0.0    initial temperature
   TEBEG  =    0.0;   TEEND  =   0.0 temperature during run
   SMASS  =  -3.00    Nose mass-parameter (am)
   estimated Nose-frequenzy (Omega)   =  0.10E-29 period in steps = 0.13E+47 mass=  -0.163E-26a.u.
   SCALEE = 1.0000    scale energy and forces
   NPACO  =    256;   APACO  = 10.0  distance and # of slots for P.C.
   PSTRESS=    0.0 pullay stress

  Mass of Ions in am
   POMASS =  24.30 16.00
  Ionic Valenz
   ZVAL   =   8.00  6.00
  Atomic Wigner-Seitz radii
   RWIGS  =  -1.00 -1.00
  virtual crystal weights
   VCA    =   1.00  1.00
   NELECT =     448.0000    total number of electrons
   NUPDOWN=      -1.0000    fix difference up-down

 DOS related values:
   EMIN   =  10.00;   EMAX   =-10.00  energy-range for DOS
   EFERMI =   0.00
   ISMEAR =     0;   SIGMA  =   0.05  broadening in eV -4-tet -1-fermi 0-gaus

 Electronic relaxation 2 (details)
   IALGO  =     58    algorithm
   LDIAG  =      T    sub-space diagonalisation (order eigenvalues)
   LSUBROT=      F    optimize rotation matrix (better conditioning)
   TURBO    =      0    0=normal 1=particle mesh
   IRESTART =      0    0=no restart 2=restart with 2 vectors
   NREBOOT  =      0    no. of reboots
   NMIN     =      0    reboot dimension
   EREF     =   0.00    reference energy to select bands
   IMIX   =      4    mixing-type and parameters
     AMIX     =   0.40;   BMIX     =  1.00
     AMIX_MAG =   1.60;   BMIX_MAG =  1.00
     AMIN     =   0.10
     WC   =   100.;   INIMIX=   1;  MIXPRE=   1;  MAXMIX= -45

 Intra band minimization:
   WEIMIN = 0.0000     energy-eigenvalue tresh-hold
   EBREAK =  0.82E-08  absolut break condition
   DEPER  =   0.30     relativ break condition

   TIME   =   0.40     timestep for ELM

  volume/ion in A,a.u.               =      23.75       160.25
  Fermi-wavevector in a.u.,A,eV,Ry     =   1.089524  2.058902 16.150966  1.187063
  Thomas-Fermi vector in A             =   2.225729

 Write flags
   LWAVE        =      F    write WAVECAR
   LDOWNSAMPLE  =      F    k-point downsampling of WAVECAR
   LCHARG       =      F    write CHGCAR
   LVTOT        =      F    write LOCPOT, total local potential
   LVHAR        =      F    write LOCPOT, Hartree potential only
   LELF         =      F    write electronic localiz. function (ELF)
   LORBIT       =      0    0 simple, 1 ext, 2 COOP (PROOUT), +10 PAW based schemes


 Dipole corrections
   LMONO  =      F    monopole corrections only (constant potential shift)
   LDIPOL =      T    correct potential (dipole corrections)
   IDIPOL =      3    1-x, 2-y, 3-z, 4-all directions
   EPSILON=  1.0000000 bulk dielectric constant

 Exchange correlation treatment:
   GGA     =    PE    GGA type
   LEXCH   =     8    internal setting for exchange type
   LIBXC   =     F    Libxc
   VOSKOWN =     0    Vosko Wilk Nusair interpolation
   LHFCALC =     F    Hartree Fock is set to
   LHFONE  =     F    Hartree Fock one center treatment
   AEXX    =    0.0000 exact exchange contribution

 Linear response parameters
   LEPSILON=     F    determine dielectric tensor
   LRPA    =     F    only Hartree local field effects (RPA)
   LNABLA  =     F    use nabla operator in PAW spheres
   LVEL    =     F    velocity operator in full k-point grid
   CSHIFT  =0.1000    complex shift for real part using Kramers Kronig
   OMEGAMAX=  -1.0    maximum frequency
   DEG_THRESHOLD= 0.2000000E-02 threshold for treating states as degnerate
   RTIME   =   -0.100 relaxation time in fs
  (WPLASMAI=    0.000 imaginary part of plasma frequency in eV, 0.658/RTIME)
   DFIELD  = 0.0000000 0.0000000 0.0000000 field for delta impulse in time

  Optional k-point grid parameters
   LKPOINTS_OPT  =     F    use optional k-point grid
   KPOINTS_OPT_MODE=     1    mode for optional k-point grid

 Orbital magnetization related:
   ORBITALMAG=     F  switch on orbital magnetization
   LCHIMAG   =     F  perturbation theory with respect to B field
   DQ        =  0.001000  dq finite difference perturbation B field
   LLRAUG    =     F  two centre corrections for induced B field



--------------------------------------------------------------------------------------------------------


 Static calculation
 charge density and potential will be updated during run
 non-spin polarized calculation
 Conjugate gradient for all bands (Freysoldt, et al. PRB 79, 241103 (2009))
 preconditioned conjugated gradient
 perform sub-space diagonalisation
    before iterative eigenvector-optimisation
 modified Broyden-mixing scheme, WC =      100.0
 initial mixing is a Kerker type mixing with AMIX =  0.4000 and BMIX =      1.0000
 Hartree-type preconditioning will be used
 using additional bands           80
 reciprocal scheme for non local part
 use partial core corrections
 no Harris-corrections to forces
 use gradient corrections
 use of overlap-Matrix (Vanderbilt PP)
 Gauss-broadening in eV      SIGMA  =   0.05


--------------------------------------------------------------------------------------------------------


  energy-cutoff  :      600.00
  volume of cell :     1519.82
      direct lattice vectors                 reciprocal lattice vectors
     8.440984654  0.000000000  0.000000000     0.118469591  0.000000000  0.000000000
     0.000000000  8.440984654  0.000000000     0.000000000  0.118469591  0.000000000
     0.000000000  0.000000000 21.330738491     0.000000000  0.000000000  0.046880702

  length of vectors
     8.440984654  8.440984654 21.330738491     0.118469591  0.118469591  0.046880702



 k-points in units of 2pi/SCALE and weight: pymatgen v2020.8.13 with grid density =
   0.00000000  0.00000000  0.00000000       0.250
   0.05923480  0.00000000  0.00000000       0.500
   0.05923480  0.05923480  0.00000000       0.250

 k-points in reciprocal lattice and weights: pymatgen v2020.8.13 with grid density =
   0.00000000  0.00000000  0.00000000       0.250
   0.50000000  0.00000000  0.00000000       0.500
   0.50000000  0.50000000  0.00000000       0.250

 position of ions in fractional coordinates (direct lattice)
   0.00000000  0.75000000  0.35160527
   0.25000000  0.00000000  0.35160527
   0.00000000  0.00000000  0.45053509
   0.25000000  0.75000000  0.45053509
   0.00000000  0.74993927  0.55008324
   0.25006073  0.00000000  0.55008324
   0.00000000  0.00000000  0.64874531
   0.24985833  0.75014167  0.64856955
   0.00000000  0.25000000  0.35160527
   0.25000000  0.50000000  0.35160527
   0.00000000  0.50000000  0.45053509
   0.25000000  0.25000000  0.45053509
   0.00000000  0.25006073  0.55008324
   0.25037838  0.50000000  0.55021952
   0.00000000  0.50000000  0.64861528
   0.24985833  0.24985833  0.64856955
   0.50000000  0.75000000  0.35160527
   0.75000000  0.00000000  0.35160527
   0.50000000  0.00000000  0.45053509
   0.75000000  0.75000000  0.45053509
   0.50000000  0.74962162  0.55021952
   0.74993927  0.00000000  0.55008324
   0.50000000  0.00000000  0.64861528
   0.75014167  0.75014167  0.64856955
   0.50000000  0.25000000  0.35160527
   0.75000000  0.50000000  0.35160527
   0.50000000  0.50000000  0.45053509
   0.75000000  0.25000000  0.45053509
   0.50000000  0.25037838  0.55021952
   0.74962162  0.50000000  0.55021952
   0.50000000  0.50000000  0.65061696
   0.75014167  0.24985833  0.64856955
   0.00000000  0.75000000  0.45053509
   0.25000000  0.00000000  0.45053509
   0.00000000  0.00000000  0.35160527
   0.25000000  0.75000000  0.35160527
   0.00000000  0.75021853  0.65097926
   0.24978147  0.00000000  0.65097926
   0.00000000  0.00000000  0.54980989
   0.24994577  0.75005423  0.54985911
   0.00000000  0.25000000  0.45053509
   0.25000000  0.50000000  0.45053509
   0.00000000  0.50000000  0.35160527
   0.25000000  0.25000000  0.35160527
   0.00000000  0.24978147  0.65097926
   0.24882271  0.50000000  0.65088287
   0.00000000  0.50000000  0.54976267
   0.24994577  0.24994577  0.54985911
   0.50000000  0.75000000  0.45053509
   0.75000000  0.00000000  0.45053509
   0.50000000  0.00000000  0.35160527
   0.75000000  0.75000000  0.35160527
   0.50000000  0.75117729  0.65088287
   0.75021853  0.00000000  0.65097926
   0.50000000  0.00000000  0.54976267
   0.75005423  0.75005423  0.54985911
   0.50000000  0.25000000  0.45053509
   0.75000000  0.50000000  0.45053509
   0.50000000  0.50000000  0.35160527
   0.75000000  0.25000000  0.35160527
   0.50000000  0.24882271  0.65088287
   0.75117729  0.50000000  0.65088287
   0.50000000  0.50000000  0.55023136
   0.75005423  0.24994577  0.54985911

 position of ions in cartesian coordinates  (Angst):
   0.00000000  6.33073849  7.50000000
   2.11024616  0.00000000  7.50000000
   0.00000000  0.00000000  9.61024616
   2.11024616  6.33073849  9.61024616
   0.00000000  6.33022585 11.73368172
   2.11075880  0.00000000 11.73368172
   0.00000000  0.00000000 13.83821654
   2.10905031  6.33193435 13.83446740
   0.00000000  2.11024616  7.50000000
   2.11024616  4.22049233  7.50000000
   0.00000000  4.22049233  9.61024616
   2.11024616  2.11024616  9.61024616
   0.00000000  2.11075880 11.73368172
   2.11344006  4.22049233 11.73658877
   0.00000000  4.22049233 13.83544293
   2.10905031  2.10905031 13.83446740
   4.22049233  6.33073849  7.50000000
   6.33073849  0.00000000  7.50000000
   4.22049233  0.00000000  9.61024616
   6.33073849  6.33073849  9.61024616
   4.22049233  6.32754460 11.73658877
   6.33022585  0.00000000 11.73368172
   4.22049233  0.00000000 13.83544293
   6.33193435  6.33193435 13.83446740
   4.22049233  2.11024616  7.50000000
   6.33073849  4.22049233  7.50000000
   4.22049233  4.22049233  9.61024616
   6.33073849  2.11024616  9.61024616
   4.22049233  2.11344006 11.73658877
   6.32754460  4.22049233 11.73658877
   4.22049233  4.22049233 13.87814023
   6.33193435  2.10905031 13.83446740
   0.00000000  6.33073849  9.61024616
   2.11024616  0.00000000  9.61024616
   0.00000000  0.00000000  7.50000000
   2.11024616  6.33073849  7.50000000
   0.00000000  6.33258312 13.88586825
   2.10840153  0.00000000 13.88586825
   0.00000000  0.00000000 11.72785099
   2.10978841  6.33119624 11.72890095
   0.00000000  2.11024616  9.61024616
   2.11024616  4.22049233  9.61024616
   0.00000000  4.22049233  7.50000000
   2.11024616  2.11024616  7.50000000
   0.00000000  2.10840153 13.88586825
   2.10030867  4.22049233 13.88381232
   0.00000000  4.22049233 11.72684365
   2.10978841  2.10978841 11.72890095
   4.22049233  6.33073849  9.61024616
   6.33073849  0.00000000  9.61024616
   4.22049233  0.00000000  7.50000000
   6.33073849  6.33073849  7.50000000
   4.22049233  6.34067598 13.88381232
   6.33258312  0.00000000 13.88586825
   4.22049233  0.00000000 11.72684365
   6.33119624  6.33119624 11.72890095
   4.22049233  2.11024616  9.61024616
   6.33073849  4.22049233  9.61024616
   4.22049233  4.22049233  7.50000000
   6.33073849  2.11024616  7.50000000
   4.22049233  2.10030867 13.88381232
   6.34067598  4.22049233 13.88381232
   4.22049233  4.22049233 11.73684118
   6.33119624  2.10978841 11.72890095



--------------------------------------------------------------------------------------------------------


 k-point   1 :   0.0000 0.0000 0.0000  plane waves:   50745
 k-point   2 :   0.5000 0.0000 0.0000  plane waves:   50798
 k-point   3 :   0.5000 0.5000 0.0000  plane waves:   50752

 maximum and minimum number of plane-waves per node :     25438    25340

 maximum number of plane-waves:     50798
 maximum index in each direction:
   IXMAX=   16   IYMAX=   16   IZMAX=   42
   IXMIN=  -17   IYMIN=  -17   IZMIN=  -42


 parallel 3D FFT for wavefunctions:
    minimum data exchange during FFTs selected (reduces bandwidth)
 parallel 3D FFT for charge:
    minimum data exchange during FFTs selected (reduces bandwidth)


 total amount of memory used by VASP MPI-rank0   114954. kBytes
=======================================================================

   base      :      30000. kBytes
   nonl-proj :      42083. kBytes
   fftplans  :      14615. kBytes
   grid      :      20512. kBytes
   one-center:        259. kBytes
   wavefun   :       7485. kBytes

     INWAV:  cpu time      0.0000: real time      0.0000
 Broyden mixing: mesh for mixing (old mesh)
   NGX = 33   NGY = 33   NGZ = 85
  (NGX  =140   NGY  =140   NGZ  =360)
  gives a total of  92565 points

 initial charge density was supplied:
 charge density of overlapping atoms calculated
 number of electron     448.0000000 magnetization
 keeping initial charge density in first step


--------------------------------------------------------------------------------------------------------


 Maximum index for augmentation-charges          608 (set IRDMAX)


--------------------------------------------------------------------------------------------------------


 First call to EWALD:  gamma=   0.154
 Maximum number of real-space cells 4x 4x 2
 Maximum number of reciprocal cells 2x 2x 5

    FEWALD:  cpu time      0.0014: real time      0.0014


--------------------------------------- Iteration      1(   1)  ---------------------------------------


    POTLOK:  cpu time      0.1055: real time      0.1058
    SETDIJ:  cpu time      0.0836: real time      0.0838
    TRIAL :  cpu time      3.2447: real time      3.2577
    CORREC:  cpu time      0.0003: real time      0.0003
    --------------------------------------------
      LOOP:  cpu time      3.4374: real time      3.4522

 eigenvalue-minimisations  :  2280
 total energy-change (2. order) : 0.3296343E+04  (-0.3072730E+05)
 number of electron     448.0000000 magnetization
 augmentation part      448.0000000 magnetization

 DIPCOR: dipole corrections for dipol
 direction  3 min pos     1,
 dipolmoment           0.000000      0.000000     -0.000006 electrons x Angstroem
 Tr[quadrupol]     -5963.452449

 energy correction for charged system         0.000000 eV
 dipol+quadrupol energy correction           -0.000000 eV
 added-field ion interaction          0.000003 eV  (added to PSCEN)


 Free energy of the ion-electron system (eV)
  ---------------------------------------------------
  alpha Z        PSCENC =       875.25928826
  Ewald energy   TEWEN  =    140467.92172078
  -Hartree energ DENC   =   -175972.37177747
  -exchange      EXHF   =         0.00000000
  -V(xc)+E(xc)   XCENC  =      1749.49614755
  PAW double counting   =     31854.93933934   -35687.86723865
  entropy T*S    EENTRO =        -0.02981471
  eigenvalues    EBANDS =     -7641.38095492
  atomic energy  EATOM  =     47650.37657287
  ---------------------------------------------------
  free energy    TOTEN  =      3296.34328303 eV

  energy without entropy =     3296.37309775  energy(sigma->0) =     3296.35819039


--------------------------------------------------------------------------------------------------------




--------------------------------------- Iteration      1(   2)  ---------------------------------------


    TRIAL :  cpu time      3.1436: real time      3.1568
    CORREC:  cpu time      0.0001: real time      0.0001
    --------------------------------------------
      LOOP:  cpu time      3.1452: real time      3.1610

 eigenvalue-minimisations  :  2280
 total energy-change (2. order) :-0.3534186E+04  (-0.3520410E+04)
 number of electron     448.0000000 magnetization
 augmentation part      448.0000000 magnetization

 DIPCOR: dipole corrections for dipol
 direction  3 min pos     1,
 dipolmoment           0.000000      0.000000     -0.000006 electrons x Angstroem
 Tr[quadrupol]     -5963.452449

 energy correction for charged system         0.000000 eV
 dipol+quadrupol energy correction           -0.000000 eV
 added-field ion interaction          0.000003 eV  (added to PSCEN)


 Free energy of the ion-electron system (eV)
  ---------------------------------------------------
  alpha Z        PSCENC =       875.25928826
  Ewald energy   TEWEN  =    140467.92172078
  -Hartree energ DENC   =   -175972.37177747
  -exchange      EXHF   =         0.00000000
  -V(xc)+E(xc)   XCENC  =      1749.49614755
  PAW double counting   =     31854.93933934   -35687.86723865
  entropy T*S    EENTRO =        -0.00000000
  eigenvalues    EBANDS =    -11175.59671993
  atomic energy  EATOM  =     47650.37657287
  ---------------------------------------------------
  free energy    TOTEN  =      -237.84266726 eV

  energy without entropy =     -237.84266726  energy(sigma->0) =     -237.84266726


--------------------------------------------------------------------------------------------------------




--------------------------------------- Iteration      1(   3)  ---------------------------------------


    TRIAL :  cpu time      4.2902: real time      4.3074
    CORREC:  cpu time      0.0001: real time      0.0001
    --------------------------------------------
      LOOP:  cpu time      4.2905: real time      4.3077

 eigenvalue-minimisations  :  2736
 total energy-change (2. order) :-0.1955239E+03  (-0.1952056E+03)
 number of electron     448.0000000 magnetization
 augmentation part      448.0000000 magnetization

 DIPCOR: dipole corrections for dipol
 direction  3 min pos     1,
 dipolmoment           0.000000      0.000000     -0.000006 electrons x Angstroem
 Tr[quadrupol]     -5963.452449

 energy correction for charged system         0.000000 eV
 dipol+quadrupol energy correction           -0.000000 eV
 added-field ion interaction          0.000003 eV  (added to PSCEN)


 Free energy of the ion-electron system (eV)
  ---------------------------------------------------
  alpha Z        PSCENC =       875.25928826
  Ewald energy   TEWEN  =    140467.92172078
  -Hartree energ DENC   =   -175972.37177747
  -exchange      EXHF   =         0.00000000
  -V(xc)+E(xc)   XCENC  =      1749.49614755
  PAW double counting   =     31854.93933934   -35687.86723865
  entropy T*S    EENTRO =        -0.00000000
  eigenvalues    EBANDS =    -11371.12063892
  atomic energy  EATOM  =     47650.37657287
  ---------------------------------------------------
  free energy    TOTEN  =      -433.36658625 eV

  energy without entropy =     -433.36658625  energy(sigma->0) =     -433.36658625


--------------------------------------------------------------------------------------------------------




--------------------------------------- Iteration      1(   4)  ---------------------------------------


    TRIAL :  cpu time      2.2813: real time      2.2913
    CORREC:  cpu time      0.0001: real time      0.0001
    --------------------------------------------
      LOOP:  cpu time      2.2816: real time      2.2915

 eigenvalue-minimisations  :  1824
 total energy-change (2. order) :-0.1644245E+01  (-0.1644161E+01)
 number of electron     448.0000000 magnetization
 augmentation part      448.0000000 magnetization

 DIPCOR: dipole corrections for dipol
 direction  3 min pos     1,
 dipolmoment           0.000000      0.000000     -0.000006 electrons x Angstroem
 Tr[quadrupol]     -5963.452449

 energy correction for charged system         0.000000 eV
 dipol+quadrupol energy correction           -0.000000 eV
 added-field ion interaction          0.000003 eV  (added to PSCEN)


 Free energy of the ion-electron system (eV)
  ---------------------------------------------------
  alpha Z        PSCENC =       875.25928826
  Ewald energy   TEWEN  =    140467.92172078
  -Hartree energ DENC   =   -175972.37177747
  -exchange      EXHF   =         0.00000000
  -V(xc)+E(xc)   XCENC  =      1749.49614755
  PAW double counting   =     31854.93933934   -35687.86723865
  entropy T*S    EENTRO =        -0.00000000
  eigenvalues    EBANDS =    -11372.76488392
  atomic energy  EATOM  =     47650.37657287
  ---------------------------------------------------
  free energy    TOTEN  =      -435.01083125 eV

  energy without entropy =     -435.01083125  energy(sigma->0) =     -435.01083125


--------------------------------------------------------------------------------------------------------




--------------------------------------- Iteration      1(   5)  ---------------------------------------


    TRIAL :  cpu time      4.2434: real time      4.2601
    CORREC:  cpu time      0.0001: real time      0.0001
    CHARGE:  cpu time      0.1324: real time      0.1329
    --------------------------------------------
      LOOP:  cpu time      4.3761: real time      4.3933

 eigenvalue-minimisations  :  2736
 total energy-change (2. order) :-0.2362179E-01  (-0.2362135E-01)
 number of electron     447.9999544 magnetization
 augmentation part      158.8643134 magnetization

 DIPCOR: dipole corrections for dipol
 direction  3 min pos     1,
 dipolmoment           0.000000      0.000000     -0.000006 electrons x Angstroem
 Tr[quadrupol]     -5963.452449

 energy correction for charged system         0.000000 eV
 dipol+quadrupol energy correction           -0.000000 eV
 added-field ion interaction          0.000003 eV  (added to PSCEN)


 Free energy of the ion-electron system (eV)
  ---------------------------------------------------
  alpha Z        PSCENC =       875.25928826
  Ewald energy   TEWEN  =    140467.92172078
  -Hartree energ DENC   =   -175972.37177747
  -exchange      EXHF   =         0.00000000
  -V(xc)+E(xc)   XCENC  =      1749.49614755
  PAW double counting   =     31854.93933934   -35687.86723865
  entropy T*S    EENTRO =        -0.00000000
  eigenvalues    EBANDS =    -11372.78850571
  atomic energy  EATOM  =     47650.37657287
  ---------------------------------------------------
  free energy    TOTEN  =      -435.03445304 eV

  energy without entropy =     -435.03445304  energy(sigma->0) =     -435.03445304


--------------------------------------------------------------------------------------------------------




--------------------------------------- Iteration      1(   6)  ---------------------------------------


    POTLOK:  cpu time      0.0615: real time      0.0617
    SETDIJ:  cpu time      0.0825: real time      0.0827
    TRIAL :  cpu time      0.9117: real time      0.9159
    CORREC:  cpu time      0.5665: real time      0.5686
    CHARGE:  cpu time      0.1248: real time      0.1254
    --------------------------------------------
      LOOP:  cpu time      1.7483: real time      1.7556

 eigenvalue-minimisations  :     0
 total energy-change (2. order) : 0.1722914E+03  (-0.9555541E+02)
 number of electron     447.9999551 magnetization
 augmentation part      155.9871168 magnetization

 DIPCOR: dipole corrections for dipol
 direction  3 min pos     1,
 dipolmoment           0.000000      0.000000      0.295681 electrons x Angstroem
 Tr[quadrupol]     -5997.690791

 energy correction for charged system         0.000000 eV
 dipol+quadrupol energy correction           -0.005205 eV
 added-field ion interaction         -0.161518 eV  (added to PSCEN)


 Free energy of the ion-electron system (eV)
  ---------------------------------------------------
  alpha Z        PSCENC =       874.95912258
  Ewald energy   TEWEN  =    140467.92172078
  -Hartree energ DENC   =   -179810.69296055
  -exchange      EXHF   =         0.00000000
  -V(xc)+E(xc)   XCENC  =      1873.18076428
  PAW double counting   =     36145.20094402   -39932.00971775
  entropy T*S    EENTRO =        -0.00000000
  eigenvalues    EBANDS =     -7531.67950144
  atomic energy  EATOM  =     47650.37657287
  ---------------------------------------------------
  free energy    TOTEN  =      -262.74305522 eV

  energy without entropy =     -262.74305522  energy(sigma->0) =     -262.74305522


--------------------------------------------------------------------------------------------------------




--------------------------------------- Iteration      1(   7)  ---------------------------------------


    POTLOK:  cpu time      0.0597: real time      0.0599
    SETDIJ:  cpu time      0.0831: real time      0.0834
    TRIAL :  cpu time      0.8994: real time      0.9036
    CORREC:  cpu time      0.5491: real time      0.5511
    CHARGE:  cpu time      0.1269: real time      0.1275
    --------------------------------------------
      LOOP:  cpu time      1.7204: real time      1.7276

 eigenvalue-minimisations  :     0
 total energy-change (2. order) :-0.9606990E+02  (-0.6627040E+01)
 number of electron     447.9999555 magnetization
 augmentation part      154.1656210 magnetization

 DIPCOR: dipole corrections for dipol
 direction  3 min pos     1,
 dipolmoment           0.000000      0.000000      0.225116 electrons x Angstroem
 Tr[quadrupol]     -6004.291543

 energy correction for charged system         0.000000 eV
 dipol+quadrupol energy correction           -0.003017 eV
 added-field ion interaction         -0.122972 eV  (added to PSCEN)


 Free energy of the ion-electron system (eV)
  ---------------------------------------------------
  alpha Z        PSCENC =       875.07266914
  Ewald energy   TEWEN  =    140467.92172078
  -Hartree energ DENC   =   -177952.56191005
  -exchange      EXHF   =         0.00000000
  -V(xc)+E(xc)   XCENC  =      1805.36181800
  PAW double counting   =     35024.96788821   -38881.95913075
  entropy T*S    EENTRO =        -0.00000000
  eigenvalues    EBANDS =     -9347.99258740
  atomic energy  EATOM  =     47650.37657287
  ---------------------------------------------------
  free energy    TOTEN  =      -358.81295920 eV

  energy without entropy =     -358.81295920  energy(sigma->0) =     -358.81295920


--------------------------------------------------------------------------------------------------------




--------------------------------------- Iteration      1(   8)  ---------------------------------------


    POTLOK:  cpu time      0.0584: real time      0.0586
    SETDIJ:  cpu time      0.0824: real time      0.0826
    TRIAL :  cpu time      0.8930: real time      0.8971
    CORREC:  cpu time      0.5398: real time      0.5419
    CHARGE:  cpu time      0.1244: real time      0.1249
    --------------------------------------------
      LOOP:  cpu time      1.6987: real time      1.7059

 eigenvalue-minimisations  :     0
 total energy-change (2. order) :-0.6644086E+01  (-0.4053884E+01)
 number of electron     447.9999554 magnetization
 augmentation part      154.3109025 magnetization

 DIPCOR: dipole corrections for dipol
 direction  3 min pos     1,
 dipolmoment           0.000000      0.000000      0.150686 electrons x Angstroem
 Tr[quadrupol]     -6002.899006

 energy correction for charged system         0.000000 eV
 dipol+quadrupol energy correction           -0.001352 eV
 added-field ion interaction         -0.082314 eV  (added to PSCEN)


 Free energy of the ion-electron system (eV)
  ---------------------------------------------------
  alpha Z        PSCENC =       875.15115762
  Ewald energy   TEWEN  =    140467.92172078
  -Hartree energ DENC   =   -177857.34857629
  -exchange      EXHF   =         0.00000000
  -V(xc)+E(xc)   XCENC  =      1795.52438910
  PAW double counting   =     34926.01499537   -38714.37215226
  entropy T*S    EENTRO =        -0.00000000
  eigenvalues    EBANDS =     -9508.72515268
  atomic energy  EATOM  =     47650.37657287
  ---------------------------------------------------
  free energy    TOTEN  =      -365.45704549 eV

  energy without entropy =     -365.45704549  energy(sigma->0) =     -365.45704549


--------------------------------------------------------------------------------------------------------




--------------------------------------- Iteration      1(   9)  ---------------------------------------


    POTLOK:  cpu time      0.0569: real time      0.0572
    SETDIJ:  cpu time      0.0827: real time      0.0829
    TRIAL :  cpu time      0.8877: real time      0.8917
    CORREC:  cpu time      0.5410: real time      0.5431
    CHARGE:  cpu time      0.1262: real time      0.1267
    --------------------------------------------
      LOOP:  cpu time      1.6957: real time      1.7028

 eigenvalue-minimisations  :     0
 total energy-change (2. order) :-0.3981051E+01  (-0.1752083E+01)
 number of electron     447.9999554 magnetization
 augmentation part      154.3140601 magnetization

 DIPCOR: dipole corrections for dipol
 direction  3 min pos     1,
 dipolmoment           0.000000      0.000000      0.116052 electrons x Angstroem
 Tr[quadrupol]     -5996.849893

 energy correction for charged system         0.000000 eV
 dipol+quadrupol energy correction           -0.000802 eV
 added-field ion interaction         -0.063394 eV  (added to PSCEN)


 Free energy of the ion-electron system (eV)
  ---------------------------------------------------
  alpha Z        PSCENC =       875.19037420
  Ewald energy   TEWEN  =    140467.92172078
  -Hartree energ DENC   =   -177744.66409885
  -exchange      EXHF   =         0.00000000
  -V(xc)+E(xc)   XCENC  =      1795.25164388
  PAW double counting   =     34858.76859882   -38683.18739606
  entropy T*S    EENTRO =        -0.00000000
  eigenvalues    EBANDS =     -9589.09551238
  atomic energy  EATOM  =     47650.37657287
  ---------------------------------------------------
  free energy    TOTEN  =      -369.43809673 eV

  energy without entropy =     -369.43809673  energy(sigma->0) =     -369.43809673


--------------------------------------------------------------------------------------------------------




--------------------------------------- Iteration      1(  10)  ---------------------------------------


    POTLOK:  cpu time      0.0598: real time      0.0601
    SETDIJ:  cpu time      0.0825: real time      0.0827
    TRIAL :  cpu time      0.8835: real time      0.8875
    CORREC:  cpu time      0.5381: real time      0.5401
    CHARGE:  cpu time      0.1243: real time      0.1249
    --------------------------------------------
      LOOP:  cpu time      1.6894: real time      1.6966

 eigenvalue-minimisations  :     0
 total energy-change (2. order) :-0.1764486E+01  (-0.6188621E+00)
 number of electron     447.9999555 magnetization
 augmentation part      154.2445489 magnetization

 DIPCOR: dipole corrections for dipol
 direction  3 min pos     1,
 dipolmoment           0.000000      0.000000      0.130642 electrons x Angstroem
 Tr[quadrupol]     -5995.759411

 energy correction for charged system         0.000000 eV
 dipol+quadrupol energy correction           -0.001016 eV
 added-field ion interaction         -0.071364 eV  (added to PSCEN)


 Free energy of the ion-electron system (eV)
  ---------------------------------------------------
  alpha Z        PSCENC =       875.19392138
  Ewald energy   TEWEN  =    140467.92172078
  -Hartree energ DENC   =   -177583.85514136
  -exchange      EXHF   =         0.00000000
  -V(xc)+E(xc)   XCENC  =      1793.55221312
  PAW double counting   =     34746.38960101   -38578.59781728
  entropy T*S    EENTRO =        -0.00000000
  eigenvalues    EBANDS =     -9742.18365310
  atomic energy  EATOM  =     47650.37657287
  ---------------------------------------------------
  free energy    TOTEN  =      -371.20258259 eV

  energy without entropy =     -371.20258259  energy(sigma->0) =     -371.20258259


--------------------------------------------------------------------------------------------------------




--------------------------------------- Iteration      1(  11)  ---------------------------------------


    POTLOK:  cpu time      0.0585: real time      0.0587
    SETDIJ:  cpu time      0.0834: real time      0.0836
    TRIAL :  cpu time      0.8897: real time      0.8939
    CORREC:  cpu time      0.5339: real time      0.5358
    CHARGE:  cpu time      0.1259: real time      0.1265
    --------------------------------------------
      LOOP:  cpu time      1.6926: real time      1.6998

 eigenvalue-minimisations  :     0
 total energy-change (2. order) :-0.6204022E+00  (-0.2105101E+00)
 number of electron     447.9999555 magnetization
 augmentation part      154.3278122 magnetization

 DIPCOR: dipole corrections for dipol
 direction  3 min pos     1,
 dipolmoment           0.000000      0.000000      0.140318 electrons x Angstroem
 Tr[quadrupol]     -5996.338139

 energy correction for charged system         0.000000 eV
 dipol+quadrupol energy correction           -0.001172 eV
 added-field ion interaction         -0.076650 eV  (added to PSCEN)


 Free energy of the ion-electron system (eV)
  ---------------------------------------------------
  alpha Z        PSCENC =       875.18768643
  Ewald energy   TEWEN  =    140467.92172078
  -Hartree energ DENC   =   -177519.07432219
  -exchange      EXHF   =         0.00000000
  -V(xc)+E(xc)   XCENC  =      1792.36083392
  PAW double counting   =     34678.78191177   -38502.05672753
  entropy T*S    EENTRO =        -0.00000000
  eigenvalues    EBANDS =     -9815.32066080
  atomic energy  EATOM  =     47650.37657287
  ---------------------------------------------------
  free energy    TOTEN  =      -371.82298476 eV

  energy without entropy =     -371.82298476  energy(sigma->0) =     -371.82298476


--------------------------------------------------------------------------------------------------------




--------------------------------------- Iteration      1(  12)  ---------------------------------------


    POTLOK:  cpu time      0.0602: real time      0.0604
    SETDIJ:  cpu time      0.0821: real time      0.0823
    TRIAL :  cpu time      0.8832: real time      0.8874
    CORREC:  cpu time      0.5400: real time      0.5420
    CHARGE:  cpu time      0.1245: real time      0.1251
    --------------------------------------------
      LOOP:  cpu time      1.6909: real time      1.6980

 eigenvalue-minimisations  :     0
 total energy-change (2. order) :-0.2105044E+00  (-0.7029325E-01)
 number of electron     447.9999554 magnetization
 augmentation part      154.4349078 magnetization

 DIPCOR: dipole corrections for dipol
 direction  3 min pos     1,
 dipolmoment           0.000000      0.000000      0.146372 electrons x Angstroem
 Tr[quadrupol]     -5996.832746

 energy correction for charged system         0.000000 eV
 dipol+quadrupol energy correction           -0.001275 eV
 added-field ion interaction         -0.079957 eV  (added to PSCEN)


 Free energy of the ion-electron system (eV)
  ---------------------------------------------------
  alpha Z        PSCENC =       875.18162805
  Ewald energy   TEWEN  =    140467.92172078
  -Hartree energ DENC   =   -177533.81687218
  -exchange      EXHF   =         0.00000000
  -V(xc)+E(xc)   XCENC  =      1792.53748766
  PAW double counting   =     34662.74865129   -38484.12294102
  entropy T*S    EENTRO =        -0.00000000
  eigenvalues    EBANDS =     -9802.85973663
  atomic energy  EATOM  =     47650.37657287
  ---------------------------------------------------
  free energy    TOTEN  =      -372.03348918 eV

  energy without entropy =     -372.03348918  energy(sigma->0) =     -372.03348918


--------------------------------------------------------------------------------------------------------




--------------------------------------- Iteration      1(  13)  ---------------------------------------


    POTLOK:  cpu time      0.0574: real time      0.0576
    SETDIJ:  cpu time      0.0821: real time      0.0823
    TRIAL :  cpu time      0.8848: real time      0.8889
    CORREC:  cpu time      0.5371: real time      0.5391
    CHARGE:  cpu time      0.1263: real time      0.1269
    --------------------------------------------
      LOOP:  cpu time      1.6891: real time      1.6962

 eigenvalue-minimisations  :     0
 total energy-change (2. order) :-0.7029856E-01  (-0.3109470E-01)
 number of electron     447.9999554 magnetization
 augmentation part      154.4788378 magnetization

 DIPCOR: dipole corrections for dipol
 direction  3 min pos     1,
 dipolmoment           0.000000      0.000000      0.150218 electrons x Angstroem
 Tr[quadrupol]     -5997.131387

 energy correction for charged system         0.000000 eV
 dipol+quadrupol energy correction           -0.001343 eV
 added-field ion interaction         -0.082058 eV  (added to PSCEN)


 Free energy of the ion-electron system (eV)
  ---------------------------------------------------
  alpha Z        PSCENC =       875.17795023
  Ewald energy   TEWEN  =    140467.92172078
  -Hartree energ DENC   =   -177556.73579202
  -exchange      EXHF   =         0.00000000
  -V(xc)+E(xc)   XCENC  =      1792.86273550
  PAW double counting   =     34663.31717007   -38487.74866325
  entropy T*S    EENTRO =        -0.00000000
  eigenvalues    EBANDS =     -9777.27548192
  atomic energy  EATOM  =     47650.37657287
  ---------------------------------------------------
  free energy    TOTEN  =      -372.10378774 eV

  energy without entropy =     -372.10378774  energy(sigma->0) =     -372.10378774


--------------------------------------------------------------------------------------------------------




--------------------------------------- Iteration      1(  14)  ---------------------------------------


    POTLOK:  cpu time      0.0568: real time      0.0570
    SETDIJ:  cpu time      0.0825: real time      0.0828
    TRIAL :  cpu time      0.8867: real time      0.8908
    CORREC:  cpu time      0.5329: real time      0.5350
    CHARGE:  cpu time      0.1241: real time      0.1246
    --------------------------------------------
      LOOP:  cpu time      1.6839: real time      1.6910

 eigenvalue-minimisations  :     0
 total energy-change (2. order) :-0.3111216E-01  (-0.1461184E-01)
 number of electron     447.9999554 magnetization
 augmentation part      154.4664093 magnetization

 DIPCOR: dipole corrections for dipol
 direction  3 min pos     1,
 dipolmoment           0.000000      0.000000      0.154216 electrons x Angstroem
 Tr[quadrupol]     -5997.397500

 energy correction for charged system         0.000000 eV
 dipol+quadrupol energy correction           -0.001416 eV
 added-field ion interaction         -0.084242 eV  (added to PSCEN)


 Free energy of the ion-electron system (eV)
  ---------------------------------------------------
  alpha Z        PSCENC =       875.17546147
  Ewald energy   TEWEN  =    140467.92172078
  -Hartree energ DENC   =   -177568.80248684
  -exchange      EXHF   =         0.00000000
  -V(xc)+E(xc)   XCENC  =      1792.92894335
  PAW double counting   =     34666.04937784   -38492.17176377
  entropy T*S    EENTRO =        -0.00000000
  eigenvalues    EBANDS =     -9763.61272559
  atomic energy  EATOM  =     47650.37657287
  ---------------------------------------------------
  free energy    TOTEN  =      -372.13489990 eV

  energy without entropy =     -372.13489990  energy(sigma->0) =     -372.13489990


--------------------------------------------------------------------------------------------------------




--------------------------------------- Iteration      1(  15)  ---------------------------------------


    POTLOK:  cpu time      0.0567: real time      0.0569
    SETDIJ:  cpu time      0.0819: real time      0.0821
    TRIAL :  cpu time      0.8833: real time      0.8874
    CORREC:  cpu time      0.5355: real time      0.5377
    CHARGE:  cpu time      0.1269: real time      0.1274
    --------------------------------------------
      LOOP:  cpu time      1.6865: real time      1.6936

 eigenvalue-minimisations  :     0
 total energy-change (2. order) :-0.1462495E-01  (-0.6654647E-02)
 number of electron     447.9999554 magnetization
 augmentation part      154.4509762 magnetization

 DIPCOR: dipole corrections for dipol
 direction  3 min pos     1,
 dipolmoment           0.000000      0.000000      0.157678 electrons x Angstroem
 Tr[quadrupol]     -5997.625670

 energy correction for charged system         0.000000 eV
 dipol+quadrupol energy correction           -0.001480 eV
 added-field ion interaction         -0.086133 eV  (added to PSCEN)


 Free energy of the ion-electron system (eV)
  ---------------------------------------------------
  alpha Z        PSCENC =       875.17317477
  Ewald energy   TEWEN  =    140467.92172078
  -Hartree energ DENC   =   -177577.03058656
  -exchange      EXHF   =         0.00000000
  -V(xc)+E(xc)   XCENC  =      1792.95472661
  PAW double counting   =     34671.09210728   -38496.38106920
  entropy T*S    EENTRO =        -0.00000000
  eigenvalues    EBANDS =     -9756.25617139
  atomic energy  EATOM  =     47650.37657287
  ---------------------------------------------------
  free energy    TOTEN  =      -372.14952485 eV

  energy without entropy =     -372.14952485  energy(sigma->0) =     -372.14952485


--------------------------------------------------------------------------------------------------------




--------------------------------------- Iteration      1(  16)  ---------------------------------------


    POTLOK:  cpu time      0.0571: real time      0.0574
    SETDIJ:  cpu time      0.0825: real time      0.0827
    TRIAL :  cpu time      0.8759: real time      0.8800
    CORREC:  cpu time      0.5324: real time      0.5345
    CHARGE:  cpu time      0.1253: real time      0.1258
    --------------------------------------------
      LOOP:  cpu time      1.6745: real time      1.6816

 eigenvalue-minimisations  :     0
 total energy-change (2. order) :-0.6658538E-02  (-0.2531442E-02)
 number of electron     447.9999554 magnetization
 augmentation part      154.4480454 magnetization

 DIPCOR: dipole corrections for dipol
 direction  3 min pos     1,
 dipolmoment           0.000000      0.000000      0.159270 electrons x Angstroem
 Tr[quadrupol]     -5997.753214

 energy correction for charged system         0.000000 eV
 dipol+quadrupol energy correction           -0.001510 eV
 added-field ion interaction         -0.087003 eV  (added to PSCEN)


 Free energy of the ion-electron system (eV)
  ---------------------------------------------------
  alpha Z        PSCENC =       875.17127800
  Ewald energy   TEWEN  =    140467.92172078
  -Hartree energ DENC   =   -177585.64151297
  -exchange      EXHF   =         0.00000000
  -V(xc)+E(xc)   XCENC  =      1793.06460178
  PAW double counting   =     34677.12014699   -38501.62749409
  entropy T*S    EENTRO =        -0.00000000
  eigenvalues    EBANDS =     -9748.54149675
  atomic energy  EATOM  =     47650.37657287
  ---------------------------------------------------
  free energy    TOTEN  =      -372.15618339 eV

  energy without entropy =     -372.15618339  energy(sigma->0) =     -372.15618339


--------------------------------------------------------------------------------------------------------




--------------------------------------- Iteration      1(  17)  ---------------------------------------


    POTLOK:  cpu time      0.0572: real time      0.0575
    SETDIJ:  cpu time      0.0835: real time      0.0837
    TRIAL :  cpu time      0.8786: real time      0.8826
    CORREC:  cpu time      0.5304: real time      0.5325
    CHARGE:  cpu time      0.1268: real time      0.1273
    --------------------------------------------
      LOOP:  cpu time      1.6776: real time      1.6847

 eigenvalue-minimisations  :     0
 total energy-change (2. order) :-0.2528275E-02  (-0.9377559E-03)
 number of electron     447.9999554 magnetization
 augmentation part      154.4485466 magnetization

 DIPCOR: dipole corrections for dipol
 direction  3 min pos     1,
 dipolmoment           0.000000      0.000000      0.158981 electrons x Angstroem
 Tr[quadrupol]     -5997.775539

 energy correction for charged system         0.000000 eV
 dipol+quadrupol energy correction           -0.001505 eV
 added-field ion interaction         -0.086845 eV  (added to PSCEN)


 Free energy of the ion-electron system (eV)
  ---------------------------------------------------
  alpha Z        PSCENC =       875.17065615
  Ewald energy   TEWEN  =    140467.92172078
  -Hartree energ DENC   =   -177589.83555332
  -exchange      EXHF   =         0.00000000
  -V(xc)+E(xc)   XCENC  =      1793.12677531
  PAW double counting   =     34680.66982733   -38505.32695808
  entropy T*S    EENTRO =        -0.00000000
  eigenvalues    EBANDS =     -9744.26175270
  atomic energy  EATOM  =     47650.37657287
  ---------------------------------------------------
  free energy    TOTEN  =      -372.15871166 eV

  energy without entropy =     -372.15871166  energy(sigma->0) =     -372.15871166


--------------------------------------------------------------------------------------------------------




--------------------------------------- Iteration      1(  18)  ---------------------------------------


    POTLOK:  cpu time      0.0571: real time      0.0573
    SETDIJ:  cpu time      0.0830: real time      0.0832
    TRIAL :  cpu time      0.8772: real time      0.8814
    CORREC:  cpu time      0.5366: real time      0.5387
    CHARGE:  cpu time      0.1242: real time      0.1248
    --------------------------------------------
      LOOP:  cpu time      1.6796: real time      1.6868

 eigenvalue-minimisations  :     0
 total energy-change (2. order) :-0.9352353E-03  (-0.3613780E-03)
 number of electron     447.9999554 magnetization
 augmentation part      154.4488118 magnetization

 DIPCOR: dipole corrections for dipol
 direction  3 min pos     1,
 dipolmoment           0.000000      0.000000      0.157957 electrons x Angstroem
 Tr[quadrupol]     -5997.756119

 energy correction for charged system         0.000000 eV
 dipol+quadrupol energy correction           -0.001485 eV
 added-field ion interaction         -0.086285 eV  (added to PSCEN)


 Free energy of the ion-electron system (eV)
  ---------------------------------------------------
  alpha Z        PSCENC =       875.17101381
  Ewald energy   TEWEN  =    140467.92172078
  -Hartree energ DENC   =   -177590.16409649
  -exchange      EXHF   =         0.00000000
  -V(xc)+E(xc)   XCENC  =      1793.13796757
  PAW double counting   =     34682.73889044   -38507.58586595
  entropy T*S    EENTRO =        -0.00000000
  eigenvalues    EBANDS =     -9743.75584992
  atomic energy  EATOM  =     47650.37657287
  ---------------------------------------------------
  free energy    TOTEN  =      -372.15964690 eV

  energy without entropy =     -372.15964690  energy(sigma->0) =     -372.15964690


--------------------------------------------------------------------------------------------------------




--------------------------------------- Iteration      1(  19)  ---------------------------------------


    POTLOK:  cpu time      0.0562: real time      0.0564
    SETDIJ:  cpu time      0.0824: real time      0.0826
    TRIAL :  cpu time      0.8804: real time      0.8846
    CORREC:  cpu time      0.5348: real time      0.5367
    CHARGE:  cpu time      0.1257: real time      0.1263
    --------------------------------------------
      LOOP:  cpu time      1.6807: real time      1.6878

 eigenvalue-minimisations  :     0
 total energy-change (2. order) :-0.3611686E-03  (-0.1441852E-03)
 number of electron     447.9999554 magnetization
 augmentation part      154.4483585 magnetization

 DIPCOR: dipole corrections for dipol
 direction  3 min pos     1,
 dipolmoment           0.000000      0.000000      0.157084 electrons x Angstroem
 Tr[quadrupol]     -5997.727658

 energy correction for charged system         0.000000 eV
 dipol+quadrupol energy correction           -0.001469 eV
 added-field ion interaction         -0.085808 eV  (added to PSCEN)


 Free energy of the ion-electron system (eV)
  ---------------------------------------------------
  alpha Z        PSCENC =       875.17167199
  Ewald energy   TEWEN  =    140467.92172078
  -Hartree energ DENC   =   -177589.29363674
  -exchange      EXHF   =         0.00000000
  -V(xc)+E(xc)   XCENC  =      1793.14521676
  PAW double counting   =     34683.98125914   -38508.77204787
  entropy T*S    EENTRO =        -0.00000000
  eigenvalues    EBANDS =     -9744.69076501
  atomic energy  EATOM  =     47650.37657287
  ---------------------------------------------------
  free energy    TOTEN  =      -372.16000807 eV

  energy without entropy =     -372.16000807  energy(sigma->0) =     -372.16000807


--------------------------------------------------------------------------------------------------------




--------------------------------------- Iteration      1(  20)  ---------------------------------------


    POTLOK:  cpu time      0.0563: real time      0.0565
    SETDIJ:  cpu time      0.0826: real time      0.0829
    TRIAL :  cpu time      0.8802: real time      0.8845
    CORREC:  cpu time      0.5318: real time      0.5338
    CHARGE:  cpu time      0.1242: real time      0.1248
    --------------------------------------------
      LOOP:  cpu time      1.6763: real time      1.6836

 eigenvalue-minimisations  :     0
 total energy-change (2. order) :-0.1444247E-03  (-0.5819642E-04)
 number of electron     447.9999554 magnetization
 augmentation part      154.4480083 magnetization

 DIPCOR: dipole corrections for dipol
 direction  3 min pos     1,
 dipolmoment           0.000000      0.000000      0.156669 electrons x Angstroem
 Tr[quadrupol]     -5997.705045

 energy correction for charged system         0.000000 eV
 dipol+quadrupol energy correction           -0.001461 eV
 added-field ion interaction         -0.085582 eV  (added to PSCEN)


 Free energy of the ion-electron system (eV)
  ---------------------------------------------------
  alpha Z        PSCENC =       875.17212793
  Ewald energy   TEWEN  =    140467.92172078
  -Hartree energ DENC   =   -177588.15427490
  -exchange      EXHF   =         0.00000000
  -V(xc)+E(xc)   XCENC  =      1793.13933810
  PAW double counting   =     34683.70971124   -38508.42491426
  entropy T*S    EENTRO =        -0.00000000
  eigenvalues    EBANDS =     -9745.90043425
  atomic energy  EATOM  =     47650.37657287
  ---------------------------------------------------
  free energy    TOTEN  =      -372.16015249 eV

  energy without entropy =     -372.16015249  energy(sigma->0) =     -372.16015249


--------------------------------------------------------------------------------------------------------




--------------------------------------- Iteration      1(  21)  ---------------------------------------


    POTLOK:  cpu time      0.0567: real time      0.0569
    SETDIJ:  cpu time      0.0829: real time      0.0832
    TRIAL :  cpu time      0.8842: real time      0.8883
    CORREC:  cpu time      0.5311: real time      0.5331
    CHARGE:  cpu time      0.1264: real time      0.1270
    --------------------------------------------
      LOOP:  cpu time      1.6824: real time      1.6895

 eigenvalue-minimisations  :     0
 total energy-change (2. order) :-0.5806873E-04  (-0.1955604E-04)
 number of electron     447.9999554 magnetization
 augmentation part      154.4483708 magnetization

 DIPCOR: dipole corrections for dipol
 direction  3 min pos     1,
 dipolmoment           0.000000      0.000000      0.156614 electrons x Angstroem
 Tr[quadrupol]     -5997.695926

 energy correction for charged system         0.000000 eV
 dipol+quadrupol energy correction           -0.001460 eV
 added-field ion interaction         -0.085552 eV  (added to PSCEN)


 Free energy of the ion-electron system (eV)
  ---------------------------------------------------
  alpha Z        PSCENC =       875.17227992
  Ewald energy   TEWEN  =    140467.92172078
  -Hartree energ DENC   =   -177587.32234790
  -exchange      EXHF   =         0.00000000
  -V(xc)+E(xc)   XCENC  =      1793.12648430
  PAW double counting   =     34682.68403807   -38507.40028754
  entropy T*S    EENTRO =        -0.00000000
  eigenvalues    EBANDS =     -9746.71867106
  atomic energy  EATOM  =     47650.37657287
  ---------------------------------------------------
  free energy    TOTEN  =      -372.16021056 eV

  energy without entropy =     -372.16021056  energy(sigma->0) =     -372.16021056


--------------------------------------------------------------------------------------------------------




--------------------------------------- Iteration      1(  22)  ---------------------------------------


    POTLOK:  cpu time      0.0557: real time      0.0559
    SETDIJ:  cpu time      0.0819: real time      0.0822
    TRIAL :  cpu time      0.8794: real time      0.8836
    CORREC:  cpu time      0.5296: real time      0.5316
    CHARGE:  cpu time      0.1236: real time      0.1242
    --------------------------------------------
      LOOP:  cpu time      1.6710: real time      1.6782

 eigenvalue-minimisations  :     0
 total energy-change (2. order) :-0.1951106E-04  (-0.7170735E-05)
 number of electron     447.9999554 magnetization
 augmentation part      154.4486324 magnetization

 DIPCOR: dipole corrections for dipol
 direction  3 min pos     1,
 dipolmoment           0.000000      0.000000      0.156669 electrons x Angstroem
 Tr[quadrupol]     -5997.693534

 energy correction for charged system         0.000000 eV
 dipol+quadrupol energy correction           -0.001461 eV
 added-field ion interaction         -0.085582 eV  (added to PSCEN)


 Free energy of the ion-electron system (eV)
  ---------------------------------------------------
  alpha Z        PSCENC =       875.17227093
  Ewald energy   TEWEN  =    140467.92172078
  -Hartree energ DENC   =   -177587.13044900
  -exchange      EXHF   =         0.00000000
  -V(xc)+E(xc)   XCENC  =      1793.12546049
  PAW double counting   =     34682.14264009   -38506.87689804
  entropy T*S    EENTRO =        -0.00000000
  eigenvalues    EBANDS =     -9746.89154818
  atomic energy  EATOM  =     47650.37657287
  ---------------------------------------------------
  free energy    TOTEN  =      -372.16023007 eV

  energy without entropy =     -372.16023007  energy(sigma->0) =     -372.16023007


--------------------------------------------------------------------------------------------------------




--------------------------------------- Iteration      1(  23)  ---------------------------------------


    POTLOK:  cpu time      0.0585: real time      0.0587
    SETDIJ:  cpu time      0.0827: real time      0.0829
    TRIAL :  cpu time      0.8848: real time      0.8888
    CORREC:  cpu time      0.5333: real time      0.5353
    EDDIAG:  cpu time      0.2329: real time      0.2340
    CHARGE:  cpu time      0.1268: real time      0.1273
    --------------------------------------------
      LOOP:  cpu time      1.9200: real time      1.9281

 eigenvalue-minimisations  :     0
 total energy-change (2. order) :-0.7241397E-05  (-0.3161311E-05)
 number of electron     447.9999554 magnetization
 augmentation part      154.4484872 magnetization

 DIPCOR: dipole corrections for dipol
[...]
    296       9.3453      0.00000
    297       9.4357      0.00000
    298       9.4474      0.00000
    299       9.4525      0.00000
    300       9.4636      0.00000
    301       9.8393      0.00000
    302       9.9771      0.00000
    303       9.9969      0.00000
    304      10.0766      0.00000


--------------------------------------------------------------------------------------------------------


 soft charge-density along one line, spin component           1
         0         1         2         3         4         5         6         7         8         9
 total charge-density along one line

 pseudopotential strength for first ion, spin component:           1
-51.763  -0.000  -0.000   7.226   0.000   0.000  -0.000   0.000
 -0.000 -51.818  -0.000   0.000   7.253   0.000  -0.033   0.082
 -0.000  -0.000 -51.763   0.000   0.000   7.226   0.000  -0.000
  7.226   0.000   0.000   4.279   0.000  -0.000  -0.000   0.000
  0.000   7.253   0.000   0.000   4.287  -0.000  -0.004   0.008
  0.000   0.000   7.226  -0.000  -0.000   4.279   0.000  -0.000
 -0.000  -0.033   0.000  -0.000  -0.004   0.000   3.006 -11.092
  0.000   0.082  -0.000   0.000   0.008  -0.000 -11.092  46.250
 -0.000  -0.000   0.000   0.000   0.000  -0.000   0.000  -0.000
  0.009   0.000  -0.000  -0.009  -0.000   0.000   0.000  -0.000
 -0.000   0.010   0.000   0.000  -0.018  -0.000   0.010  -0.019
 -0.000  -0.000   0.009   0.000   0.000  -0.009   0.000  -0.000
 -0.000  -0.000  -0.000   0.000   0.000   0.000   0.000  -0.000
 total augmentation occupancy for first ion, spin component:           1
  2.001   0.000   0.000  -0.006   0.000   0.000   0.000   0.000   0.000  -0.008   0.000   0.000   0.000
  0.000   2.002  -0.000  -0.000   0.000  -0.000   0.001   0.004   0.000  -0.000  -0.014   0.000   0.000
  0.000  -0.000   2.001   0.000  -0.000  -0.006   0.000   0.000  -0.000   0.000   0.000  -0.008  -0.000
 -0.006  -0.000   0.000   0.077  -0.000   0.000   0.000  -0.000   0.000   0.001  -0.000   0.000  -0.000
  0.000   0.000  -0.000  -0.000   0.048   0.000   0.040   0.001   0.000   0.000   0.026   0.000   0.000
  0.000  -0.000  -0.006   0.000   0.000   0.077   0.000   0.000  -0.000   0.000  -0.000   0.001  -0.000
  0.000   0.001   0.000   0.000   0.040   0.000   0.831   0.013   0.000  -0.000  -0.040   0.000  -0.000
  0.000   0.004   0.000  -0.000   0.001   0.000   0.013   0.000   0.000  -0.000  -0.001   0.000  -0.000
  0.000   0.000  -0.000   0.000   0.000  -0.000   0.000   0.000   0.013  -0.000   0.000  -0.000   0.000
 -0.008  -0.000   0.000   0.001   0.000   0.000  -0.000  -0.000  -0.000   0.011  -0.000   0.000   0.000
  0.000  -0.014   0.000  -0.000   0.026  -0.000  -0.040  -0.001   0.000  -0.000   0.031   0.000   0.000
  0.000   0.000  -0.008   0.000   0.000   0.001   0.000   0.000  -0.000   0.000   0.000   0.011   0.000
  0.000   0.000  -0.000  -0.000   0.000  -0.000  -0.000  -0.000   0.000   0.000   0.000   0.000   0.052


------------------------ aborting loop because EDIFF is reached ----------------------------------------


    FORLOC:  cpu time      0.0028: real time      0.0029
    FORNL :  cpu time      0.2982: real time      0.2997
    STRESS:  cpu time      2.0606: real time      2.0690
    FORCOR:  cpu time      0.0497: real time      0.0498
    OFIELD:  cpu time      0.0001: real time      0.0001

  DFT-D2 method for vdW energy calculation
  -------------------------------------------------------------------

  Parameters of vdW forcefield:
         C6(Jnm^6/mol)     R0(A)
   -----------------------------
   Mg       0.630          1.243
   O        0.700          1.342

  vdW correction parametrized for the method pbe

  IVDW =   1
  VDW_RADIUS =    50.000 A
  VDW_S6 =     0.750
  VDW_SR =     1.000
  VDW_D =    20.000
  LVDW_EWALD = F

  Number of pair interactions contributing to vdW energy:  723312
  Edisp (eV):   -3.61983
    FORVDW:  cpu time      0.0347: real time      0.0348

  FORCE on cell =-STRESS in cart. coord.  units (eV):
  Direction    XX          YY          ZZ          XY          YZ          ZX
  --------------------------------------------------------------------------------------
  Alpha Z   875.25928   875.25928   875.25928
  Ewald  161112.87060161112.87060************     0.00000     0.00000    -0.00000
  Hartree171172.70571171172.70571************    -0.00000    -0.00000    -0.00000
  E(xc)   -2456.55478 -2456.55478 -2461.84335     0.00000    -0.00000     0.00000
  Local  ************************342557.06504     0.00000     0.00000    -0.00000
  n-local -2811.60201 -2812.46256 -2832.90868     0.00000     0.00000    -0.00000
  augment  1047.86129  1047.86129  1038.52861     0.00000    -0.00000    -0.00000
  Kinetic  7301.25039  7303.97540  7344.41285    -0.00002     0.00000     0.00001
  Fock        0.00000     0.00000     0.00000     0.00000     0.00000     0.00000
  vdW        -5.28874    -5.28874    -4.29652    -0.00000    -0.00000    -0.00000
  -------------------------------------------------------------------------------------
  Total     -24.51302   -24.51302    -0.07193     0.00000     0.00000     0.00000
  in kB     -25.84136   -25.84136    -0.07583     0.00000     0.00000     0.00000
  external pressure =      -17.25 kB  Pullay stress =        0.00 kB


 VOLUME and BASIS-vectors are now :
 -----------------------------------------------------------------------------
  energy-cutoff  :      600.00
  volume of cell :     1519.82
      direct lattice vectors                 reciprocal lattice vectors
     8.440984654  0.000000000  0.000000000     0.118469591  0.000000000  0.000000000
     0.000000000  8.440984654  0.000000000     0.000000000  0.118469591  0.000000000
     0.000000000  0.000000000 21.330738491     0.000000000  0.000000000  0.046880702

  length of vectors
     8.440984654  8.440984654 21.330738491     0.118469591  0.118469591  0.046880702


 FORCES acting on ions:
    Electron-Ion                     Ewald-Force                    Non-Local-Force
 -----------------------------------------------------------------------------------------------
   -.353E-13 0.761E-01 0.207E+04   -.132E-12 -.754E-01 -.206E+04   0.478E-22 -.542E-03 -.704E+01
   -.761E-01 -.606E-13 0.207E+04   0.754E-01 0.537E-13 -.206E+04   0.542E-03 -.565E-22 -.704E+01
   -.440E-13 -.152E-12 0.684E+03   -.151E-10 0.151E-10 -.684E+03   0.346E-22 -.427E-22 0.492E+00
   -.439E+00 0.439E+00 0.683E+03   0.441E+00 -.441E+00 -.684E+03   -.982E-03 0.982E-03 0.528E+00
   -.570E-13 0.276E+00 -.690E+03   0.162E-11 -.271E+00 0.690E+03   0.336E-22 0.112E-02 -.198E+00
   -.276E+00 -.236E-12 -.690E+03   0.271E+00 -.144E-11 0.690E+03   -.112E-02 -.170E-21 -.198E+00
   -.534E-13 -.471E-12 -.205E+04   0.419E-12 -.348E-12 0.204E+04   -.619E-22 0.138E-22 0.594E+01
   -.136E+01 0.136E+01 -.205E+04   0.121E+01 -.121E+01 0.204E+04   0.130E+00 -.130E+00 0.600E+01
   -.261E-13 -.761E-01 0.207E+04   -.356E-12 0.754E-01 -.206E+04   -.200E-22 0.542E-03 -.704E+01
   -.115E+00 0.579E-12 0.207E+04   0.116E+00 0.131E-10 -.206E+04   -.140E-02 0.826E-22 -.704E+01
   -.470E-13 0.620E-12 0.683E+03   -.166E-10 0.391E-13 -.684E+03   0.779E-22 -.448E-23 0.472E+00
   -.439E+00 -.439E+00 0.683E+03   0.441E+00 0.441E+00 -.684E+03   -.982E-03 -.982E-03 0.528E+00
   -.449E-13 -.276E+00 -.690E+03   0.298E-11 0.271E+00 0.690E+03   -.106E-21 -.112E-02 -.198E+00
   -.164E+01 -.128E-12 -.691E+03   0.172E+01 -.995E-13 0.692E+03   -.821E-01 0.332E-22 -.256E+00
   -.448E-13 -.606E-13 -.205E+04   0.142E-13 -.355E-14 0.204E+04   -.304E-22 0.148E-22 0.591E+01
   -.136E+01 -.136E+01 -.205E+04   0.121E+01 0.121E+01 0.204E+04   0.130E+00 0.130E+00 0.600E+01
   0.700E-12 0.115E+00 0.207E+04   -.128E-10 -.116E+00 -.206E+04   -.460E-22 0.140E-02 -.704E+01
   0.761E-01 -.404E-13 0.207E+04   -.754E-01 0.702E-13 -.206E+04   -.542E-03 -.404E-22 -.704E+01
   0.623E-12 0.192E-12 0.683E+03   0.154E-11 0.150E-10 -.684E+03   0.468E-23 -.504E-22 0.472E+00
   0.439E+00 0.439E+00 0.683E+03   -.441E+00 -.441E+00 -.684E+03   0.982E-03 0.982E-03 0.528E+00
   0.622E-12 0.164E+01 -.691E+03   -.153E-11 -.172E+01 0.692E+03   -.168E-22 0.821E-01 -.256E+00
   0.276E+00 -.222E-12 -.690E+03   -.271E+00 -.153E-11 0.690E+03   0.112E-02 -.743E-22 -.198E+00
   0.689E-12 -.119E-11 -.205E+04   0.853E-13 -.249E-13 0.204E+04   -.618E-23 -.141E-22 0.591E+01
   0.136E+01 0.136E+01 -.205E+04   -.121E+01 -.121E+01 0.204E+04   -.130E+00 -.130E+00 0.600E+01
   0.697E-12 -.115E+00 0.207E+04   -.132E-10 0.116E+00 -.206E+04   -.126E-21 -.140E-02 -.704E+01
   0.115E+00 -.158E-11 0.207E+04   -.116E+00 0.131E-10 -.206E+04   0.140E-02 -.746E-22 -.704E+01
   0.636E-12 0.990E-12 0.681E+03   -.249E-13 0.924E-13 -.682E+03   0.131E-22 0.236E-23 0.620E+00
   0.439E+00 -.439E+00 0.683E+03   -.441E+00 0.441E+00 -.684E+03   0.982E-03 -.982E-03 0.528E+00
   0.615E-12 -.164E+01 -.691E+03   0.000E+00 0.172E+01 0.692E+03   -.502E-22 -.821E-01 -.256E+00
   0.164E+01 -.193E-11 -.691E+03   -.172E+01 -.284E-13 0.692E+03   0.821E-01 -.365E-22 -.256E+00
   0.692E-12 0.788E-12 -.207E+04   0.675E-13 -.711E-14 0.206E+04   0.126E-22 -.280E-22 0.636E+01
   0.136E+01 -.136E+01 -.205E+04   -.121E+01 0.121E+01 0.204E+04   -.130E+00 0.130E+00 0.600E+01
   -.510E-13 0.176E+00 0.512E+03   0.950E-13 -.177E+00 -.512E+03   -.103E-22 0.131E-02 -.958E-01
   -.176E+00 0.197E-12 0.512E+03   0.177E+00 -.444E-14 -.512E+03   -.131E-02 -.215E-22 -.958E-01
   -.409E-13 -.135E-12 0.155E+04   0.854E-11 -.844E-11 -.156E+04   0.611E-22 0.608E-22 0.348E+01
   -.724E-01 0.724E-01 0.155E+04   0.725E-01 -.725E-01 -.156E+04   -.663E-04 0.663E-04 0.349E+01
   -.108E-13 0.424E+00 -.156E+04   -.799E-12 -.450E+00 0.156E+04   -.466E-22 0.129E-01 -.512E+01
   -.424E+00 0.579E-12 -.156E+04   0.450E+00 0.856E-12 0.156E+04   -.129E-01 -.668E-22 -.512E+01
   -.326E-13 -.111E-12 -.512E+03   -.711E-14 0.497E-13 0.511E+03   -.221E-22 0.110E-22 0.226E+00
   -.696E+00 0.696E+00 -.511E+03   0.687E+00 -.687E+00 0.511E+03   0.180E-01 -.180E-01 0.328E+00
   -.324E-13 -.176E+00 0.512E+03   0.924E-13 0.177E+00 -.512E+03   -.622E-23 -.131E-02 -.958E-01
   -.413E+00 0.577E-12 0.511E+03   0.385E+00 -.762E-11 -.511E+03   0.390E-01 -.660E-23 -.109E+00
   -.533E-13 0.364E-12 0.155E+04   0.846E-11 -.867E-12 -.156E+04   0.131E-21 -.765E-22 0.349E+01
   -.724E-01 -.724E-01 0.155E+04   0.725E-01 0.725E-01 -.156E+04   -.663E-04 -.663E-04 0.349E+01
   -.189E-13 -.424E+00 -.156E+04   -.782E-12 0.450E+00 0.156E+04   -.624E-22 -.129E-01 -.512E+01
   -.307E+01 -.943E-12 -.156E+04   0.301E+01 0.818E-11 0.156E+04   0.196E+00 -.475E-22 -.480E+01
   -.455E-13 0.401E-12 -.511E+03   -.742E-11 0.711E-14 0.510E+03   0.672E-23 0.572E-23 0.310E+00
   -.696E+00 -.696E+00 -.511E+03   0.687E+00 0.687E+00 0.511E+03   0.180E-01 0.180E-01 0.328E+00
   0.258E-12 0.413E+00 0.511E+03   0.763E-11 -.385E+00 -.511E+03   0.401E-22 -.390E-01 -.109E+00
   0.176E+00 0.182E-12 0.512E+03   -.177E+00 -.568E-13 -.512E+03   0.131E-02 -.153E-22 -.958E-01
   0.289E-12 -.943E-12 0.155E+04   0.918E-12 -.848E-11 -.156E+04   0.711E-23 -.171E-22 0.349E+01
   0.724E-01 0.724E-01 0.155E+04   -.725E-01 -.725E-01 -.156E+04   0.663E-04 0.663E-04 0.349E+01
   0.337E-12 0.307E+01 -.156E+04   -.815E-11 -.301E+01 0.156E+04   0.284E-22 -.196E+00 -.480E+01
   0.424E+00 0.444E-12 -.156E+04   -.450E+00 0.888E-12 0.156E+04   0.129E-01 -.946E-22 -.512E+01
   0.272E-12 0.537E-12 -.511E+03   -.355E-13 0.743E-11 0.510E+03   0.101E-22 -.606E-23 0.310E+00
   0.696E+00 0.696E+00 -.511E+03   -.687E+00 -.687E+00 0.511E+03   -.180E-01 -.180E-01 0.328E+00
   0.248E-12 -.413E+00 0.511E+03   0.769E-11 0.385E+00 -.511E+03   -.988E-22 0.390E-01 -.109E+00
   0.413E+00 -.152E-11 0.511E+03   -.385E+00 -.770E-11 -.511E+03   -.390E-01 0.262E-23 -.109E+00
   0.327E-12 -.539E-12 0.155E+04   0.876E-12 -.888E-12 -.156E+04   -.628E-22 -.197E-21 0.349E+01
   0.724E-01 -.724E-01 0.155E+04   -.725E-01 0.725E-01 -.156E+04   0.663E-04 -.663E-04 0.349E+01
   0.350E-12 -.307E+01 -.156E+04   -.818E-11 0.301E+01 0.156E+04   -.136E-22 0.196E+00 -.480E+01
   0.307E+01 0.552E-12 -.156E+04   -.301E+01 0.818E-11 0.156E+04   -.196E+00 0.262E-22 -.480E+01
   0.265E-12 0.498E-12 -.520E+03   -.782E-13 0.355E-13 0.520E+03   -.137E-22 -.587E-23 -.122E+00
   0.696E+00 -.696E+00 -.511E+03   -.687E+00 0.687E+00 0.511E+03   -.180E-01 0.180E-01 0.328E+00
 -----------------------------------------------------------------------------------------------
   0.205E-10 0.134E-10 0.164E+02   -.165E-12 0.179E-12 0.841E-11   -.416E-16 -.416E-16 -.164E+02


 POSITION                                       TOTAL-FORCE (eV/Angst)
 -----------------------------------------------------------------------------------
      0.00000      6.33074      7.50000        -0.000000      0.000184      0.346272
      2.11025      0.00000      7.50000        -0.000184     -0.000000      0.346272
      0.00000      0.00000      9.61025        -0.000000     -0.000000      0.036992
      2.11025      6.33074      9.61025         0.000740     -0.000740      0.036151
      0.00000      6.33023     11.73368        -0.000000      0.005832      0.042525
      2.11076      0.00000     11.73368        -0.005832     -0.000000      0.042525
      0.00000      0.00000     13.83822        -0.000000     -0.000000      0.002823
      2.10905      6.33193     13.83447        -0.023325      0.023325      0.014739
      0.00000      2.11025      7.50000        -0.000000     -0.000184      0.346272
      2.11025      4.22049      7.50000         0.000314     -0.000000      0.345867
      0.00000      4.22049      9.61025        -0.000000     -0.000000      0.041689
      2.11025      2.11025      9.61025         0.000740      0.000740      0.036151
      0.00000      2.11076     11.73368        -0.000000     -0.005832      0.042525
      2.11344      4.22049     11.73659        -0.006755     -0.000000      0.032181
      0.00000      4.22049     13.83544        -0.000000     -0.000000      0.019295
      2.10905      2.10905     13.83447        -0.023325     -0.023325      0.014739
      4.22049      6.33074      7.50000        -0.000000     -0.000314      0.345867
      6.33074      0.00000      7.50000         0.000184     -0.000000      0.346272
      4.22049      0.00000      9.61025        -0.000000     -0.000000      0.041689
      6.33074      6.33074      9.61025        -0.000740     -0.000740      0.036151
      4.22049      6.32754     11.73659        -0.000000      0.006755      0.032181
      6.33023      0.00000     11.73368         0.005832     -0.000000      0.042525
      4.22049      0.00000     13.83544        -0.000000     -0.000000      0.019295
      6.33193      6.33193     13.83447         0.023325      0.023325      0.014739
      4.22049      2.11025      7.50000        -0.000000      0.000314      0.345867
      6.33074      4.22049      7.50000        -0.000314     -0.000000      0.345867
      4.22049      4.22049      9.61025        -0.000000     -0.000000      0.044533
      6.33074      2.11025      9.61025        -0.000740      0.000740      0.036151
      4.22049      2.11344     11.73659        -0.000000     -0.006755      0.032181
      6.32754      4.22049     11.73659         0.006755     -0.000000      0.032181
      4.22049      4.22049     13.87814        -0.000000     -0.000000     -0.273809
      6.33193      2.10905     13.83447         0.023325     -0.023325      0.014739
      0.00000      6.33074      9.61025        -0.000000      0.000623      0.061285
      2.11025      0.00000      9.61025        -0.000623     -0.000000      0.061285
      0.00000      0.00000      7.50000        -0.000000     -0.000000     -0.516946
      2.11025      6.33074      7.50000        -0.000024      0.000024     -0.516456
      0.00000      6.33258     13.88587        -0.000000     -0.012993     -0.004748
      2.10840      0.00000     13.88587         0.012993     -0.000000     -0.004748
      0.00000      0.00000     11.72785        -0.000000     -0.000000      0.010155
      2.10979      6.33120     11.72890         0.007987     -0.007987      0.009289
      0.00000      2.11025      9.61025        -0.000000     -0.000623      0.061285
      2.11025      4.22049      9.61025         0.010329     -0.000000      0.072256
      0.00000      4.22049      7.50000        -0.000000     -0.000000     -0.516478
      2.11025      2.11025      7.50000        -0.000024     -0.000024     -0.516456
      0.00000      2.10840     13.88587        -0.000000      0.012993     -0.004748
      2.10031      4.22049     13.88381         0.136898     -0.000000      0.073696
      0.00000      4.22049     11.72684        -0.000000     -0.000000      0.024258
      2.10979      2.10979     11.72890         0.007987      0.007987      0.009289
      4.22049      6.33074      9.61025        -0.000000     -0.010329      0.072256
      6.33074      0.00000      9.61025         0.000623     -0.000000      0.061285
      4.22049      0.00000      7.50000        -0.000000     -0.000000     -0.516478
      6.33074      6.33074      7.50000         0.000024      0.000024     -0.516456
      4.22049      6.34068     13.88381        -0.000000     -0.136898      0.073696
      6.33258      0.00000     13.88587        -0.012993     -0.000000     -0.004748
      4.22049      0.00000     11.72684        -0.000000     -0.000000      0.024258
      6.33120      6.33120     11.72890        -0.007987     -0.007987      0.009289
      4.22049      2.11025      9.61025        -0.000000      0.010329      0.072256
      6.33074      4.22049      9.61025        -0.010329     -0.000000      0.072256
      4.22049      4.22049      7.50000        -0.000000     -0.000000     -0.516809
      6.33074      2.11025      7.50000         0.000024     -0.000024     -0.516456
      4.22049      2.10031     13.88381        -0.000000      0.136898      0.073696
      6.34068      4.22049     13.88381        -0.136898     -0.000000      0.073696
      4.22049      4.22049     11.73684        -0.000000     -0.000000      0.023304
      6.33120      2.10979     11.72890        -0.007987      0.007987      0.009289
 -----------------------------------------------------------------------------------
    total drift:                                0.000000      0.000000      0.001707


--------------------------------------------------------------------------------------------------------



  FREE ENERGIE OF THE ION-ELECTRON SYSTEM (eV)
  ---------------------------------------------------
  free  energy   TOTEN  =      -375.78007192 eV

  energy  without entropy=     -375.78007192  energy(sigma->0) =     -375.78007192



--------------------------------------------------------------------------------------------------------


    POTLOK:  cpu time      0.1405: real time      0.1409


--------------------------------------------------------------------------------------------------------


     LOOP+:  cpu time     50.8685: real time     51.0862
    4ORBIT:  cpu time      0.0000: real time      0.0000

 total amount of memory used by VASP MPI-rank0   114954. kBytes
=======================================================================

   base      :      30000. kBytes
   nonl-proj :      42083. kBytes
   fftplans  :      14615. kBytes
   grid      :      20512. kBytes
   one-center:        259. kBytes
   wavefun   :       7485. kBytes



 General timing and accounting informations for this job:
 ========================================================

                  Total CPU time used (sec):       54.010
                            User time (sec):       53.547
                          System time (sec):        0.464
                         Elapsed time (sec):       54.893

                   Maximum memory used (kb):      391244.
                   Average memory used (kb):          N/A

                          Minor page faults:        54664
                          Major page faults:          108
                 Voluntary context switches:         1840
