 vasp.6.3.0 20Jan22 (build Mar 11 2022 13:48:16) complex                        
  
 executed on             LinuxIFC date 2023.12.26  17:12:16
 running on  304 total cores
 distrk:  each k-point on  304 cores,    1 groups
 distr:  one band on NCORE=   2 cores,  152 groups


--------------------------------------------------------------------------------------------------------


 INCAR:
   SYSTEM = MgO-rocksalt
   ISMEAR = 0
   SIGMA = 0.05
   EDIFF = 1E-5
   ALGO = ALL
   ISTART = 0
   IBRION = -1
   NSW = 0
   ISYM = 2
   ISIF = 2
   DIPOL = 0.5 0.5 0.5
   IDIPOL = 3
   LDIPOL = .TRUE.
   GGA = PE
   IVDW = 1
   VDW_C6 = 1.75 0.70
   VDW_R0 = 1.452 1.342
   ENCUT = 600
   PREC = Accurate
   LASPH = .TRUE.
   LREAL = .FALSE.
   ISPIN = 1
   NELM = 200
   NELMIN = 8
   NCORE = 2
   KPAR = 1
   LWAVE = .FALSE.
   LCHARG = .FALSE.

 POTCAR:    PAW_PBE C 08Apr2002                   
 POTCAR:    PAW_PBE O 08Apr2002                   
 -----------------------------------------------------------------------------
|                                                                             |
|           W    W    AA    RRRRR   N    N  II  N    N   GGGG   !!!           |
|           W    W   A  A   R    R  NN   N  II  NN   N  G    G  !!!           |
|           W    W  A    A  R    R  N N  N  II  N N  N  G       !!!           |
|           W WW W  AAAAAA  RRRRR   N  N N  II  N  N N  G  GGG   !            |
|           WW  WW  A    A  R   R   N   NN  II  N   NN  G    G                |
|           W    W  A    A  R    R  N    N  II  N    N   GGGG   !!!           |
|                                                                             |
|     For optimal performance we recommend to set                             |
|       NCORE = 2 up to number-of-cores-per-socket                            |
|     NCORE specifies how many cores store one orbital (NPAR=cpu/NCORE).      |
|     This setting can greatly improve the performance of VASP for DFT.       |
|     The default, NCORE=1 might be grossly inefficient on modern             |
|     multi-core architectures or massively parallel machines. Do your        |
|     own testing! More info at https://www.vasp.at/wiki/index.php/NCORE      |
|     Unfortunately you need to use the default for GW and RPA                |
|     calculations (for HF NCORE is supported but not extensively tested      |
|     yet).                                                                   |
|                                                                             |
 -----------------------------------------------------------------------------

 POTCAR:    PAW_PBE C 08Apr2002                   
   SHA256 =  253f7b50bb8d59471dbedb8285d89021f4a42ed1a2c5d38a03a736e69125dd95 C/POTCAR              
   COPYR  = (c) Copyright 08Apr2002 Georg Kresse                                                    
   COPYR  = This file is part of the software VASP. Any use, copying, and all other rights are regul
   COPYR  = If you do not have a valid VASP license, you may not use, copy or distribute this file. 
   VRHFIN =C: s2p2                                                                                  
   LEXCH  = PE                                                                                      
   EATOM  =   147.1560 eV,   10.8157 Ry                                                             
                                                                                                    
   TITEL  = PAW_PBE C 08Apr2002                                                                     
   LULTRA =        F    use ultrasoft PP ?                                                          
   IUNSCR =        1    unscreen: 0-lin 1-nonlin 2-no                                               
   RPACOR =    1.200    partial core radius                                                         
   POMASS =   12.011; ZVAL   =    4.000    mass and valenz                                          
   RCORE  =    1.500    outmost cutoff radius                                                       
   RWIGS  =    1.630; RWIGS  =    0.863    wigner-seitz radius (au A)                               
   ENMAX  =  400.000; ENMIN  =  300.000 eV                                                          
   ICORE  =        2    local potential                                                             
   LCOR   =        T    correct aug charges                                                         
   LPAW   =        T    paw PP                                                                      
   EAUG   =  644.873                                                                                
   DEXC   =    0.000                                                                                
   RMAX   =    1.529    core radius for proj-oper                                                   
   RAUG   =    1.300    factor for augmentation sphere                                              
   RDEP   =    1.501    radius for radial grids                                                     
   RDEPT  =    1.300    core radius for aug-charge                                                  
                                                                                                    
   Atomic configuration                                                                             
    4 entries                                                                                       
     n  l   j            E        occ.                                                              
     1  0  0.50      -273.3789   2.0000                                                             
     2  0  0.50       -13.7508   2.0000                                                             
     2  1  0.50        -5.2854   2.0000                                                             
     3  2  1.50        -5.4423   0.0000                                                             
   Description                                                                                      
     l       E           TYP  RCUT    TYP  RCUT                                                     
     0    -13.7508458     23  1.200                                                                 
     0     -8.2022199     23  1.200                                                                 
     1     -5.2854383     23  1.500                                                                 
     1     34.0145650     23  1.500                                                                 
     2     -5.4423304      7  1.500                                                                 
  local pseudopotential read in
  partial core-charges read in
  partial kinetic energy density read in
  atomic valenz-charges read in
  non local Contribution for L=           0  read in
    real space projection operators read in
  non local Contribution for L=           0  read in
    real space projection operators read in
  non local Contribution for L=           1  read in
    real space projection operators read in
  non local Contribution for L=           1  read in
    real space projection operators read in
    PAW grid and wavefunctions read in
 
   number of l-projection  operators is LMAX  =           4
   number of lm-projection operators is LMMAX =           8
 
 POTCAR:    PAW_PBE O 08Apr2002                   
   SHA256 =  818f92134a0a090dccd8ba1447fa70422a3b330e708bb4f08108d8ae51209ddf O/POTCAR              
   COPYR  = (c) Copyright 08Apr2002 Georg Kresse                                                    
   COPYR  = This file is part of the software VASP. Any use, copying, and all other rights are regul
   COPYR  = If you do not have a valid VASP license, you may not use, copy or distribute this file. 
   VRHFIN =O: s2p4                                                                                  
   LEXCH  = PE                                                                                      
   EATOM  =   432.3788 eV,   31.7789 Ry                                                             
                                                                                                    
   TITEL  = PAW_PBE O 08Apr2002                                                                     
   LULTRA =        F    use ultrasoft PP ?                                                          
   IUNSCR =        1    unscreen: 0-lin 1-nonlin 2-no                                               
   RPACOR =    1.200    partial core radius                                                         
   POMASS =   16.000; ZVAL   =    6.000    mass and valenz                                          
   RCORE  =    1.520    outmost cutoff radius                                                       
   RWIGS  =    1.550; RWIGS  =    0.820    wigner-seitz radius (au A)                               
   ENMAX  =  400.000; ENMIN  =  300.000 eV                                                          
   ICORE  =        2    local potential                                                             
   LCOR   =        T    correct aug charges                                                         
   LPAW   =        T    paw PP                                                                      
   EAUG   =  605.392                                                                                
   DEXC   =    0.000                                                                                
   RMAX   =    1.553    core radius for proj-oper                                                   
   RAUG   =    1.300    factor for augmentation sphere                                              
   RDEP   =    1.550    radius for radial grids                                                     
   RDEPT  =    1.329    core radius for aug-charge                                                  
                                                                                                    
   Atomic configuration                                                                             
    4 entries                                                                                       
     n  l   j            E        occ.                                                              
     1  0  0.50      -514.6923   2.0000                                                             
     2  0  0.50       -23.9615   2.0000                                                             
     2  1  0.50        -9.0305   4.0000                                                             
     3  2  1.50        -9.5241   0.0000                                                             
   Description                                                                                      
     l       E           TYP  RCUT    TYP  RCUT                                                     
     0    -23.9615318     23  1.200                                                                 
     0     -9.5240782     23  1.200                                                                 
     1     -9.0304911     23  1.520                                                                 
     1      8.1634956     23  1.520                                                                 
     2     -9.5240782      7  1.500                                                                 
  local pseudopotential read in
  partial core-charges read in
  partial kinetic energy density read in
  kinetic energy density of atom read in
  atomic valenz-charges read in
  non local Contribution for L=           0  read in
    real space projection operators read in
  non local Contribution for L=           0  read in
    real space projection operators read in
  non local Contribution for L=           1  read in
    real space projection operators read in
  non local Contribution for L=           1  read in
    real space projection operators read in
    PAW grid and wavefunctions read in
 
   number of l-projection  operators is LMAX  =           4
   number of lm-projection operators is LMMAX =           8
 
  PAW_PBE C 08Apr2002                   :
 energy of atom  1       EATOM= -147.1560
 kinetic energy error for atom=    0.0057 (will be added to EATOM!!)
  PAW_PBE O 08Apr2002                   :
 energy of atom  2       EATOM= -432.3788
 kinetic energy error for atom=    0.0168 (will be added to EATOM!!)
 
 
 POSCAR:  C  O
  positions in direct lattice
  No initial velocities read in
 exchange correlation table for  LEXCH =        8
   RHO(1)=    0.500       N(1)  =     2000
   RHO(2)=  100.500       N(2)  =     4000
 


--------------------------------------------------------------------------------------------------------


 ion  position               nearest neighbor table
   1  0.500  0.500  0.765-   2 1.15
   2  0.500  0.500  0.819-   1 1.15
 
  LATTYP: Found a simple tetragonal cell.
 ALAT       =     8.4409846542
 C/A-ratio  =     2.5270438657
  
  Lattice vectors:
  
 A1 = (   8.4409846542,   0.0000000000,   0.0000000000)
 A2 = (   0.0000000000,   8.4409846542,   0.0000000000)
 A3 = (   0.0000000000,   0.0000000000,  21.3307384906)


Analysis of symmetry for initial positions (statically):
=====================================================================
 Subroutine PRICEL returns:
 Original cell was already a primitive cell.
 

 Routine SETGRP: Setting up the symmetry group for a 
 simple tetragonal supercell.


 Subroutine GETGRP returns: Found  8 space group operations
 (whereof  8 operations were pure point group operations)
 out of a pool of 16 trial point group operations.


The static configuration has the point symmetry C_4v.


Analysis of symmetry for dynamics (positions and initial velocities):
=====================================================================
 Subroutine PRICEL returns:
 Original cell was already a primitive cell.
 

 Routine SETGRP: Setting up the symmetry group for a 
 simple tetragonal supercell.


 Subroutine GETGRP returns: Found  8 space group operations
 (whereof  8 operations were pure point group operations)
 out of a pool of 16 trial point group operations.


The dynamic configuration has the point symmetry C_4v.


 Subroutine INISYM returns: Found  8 space group operations
 (whereof  8 operations are pure point group operations),
 and found     1 'primitive' translations


----------------------------------------------------------------------------------------

                                     Primitive cell                                     

  volume of cell :    1519.8199

  direct lattice vectors                    reciprocal lattice vectors
     8.440984654  0.000000000  0.000000000     0.118469591  0.000000000  0.000000000
     0.000000000  8.440984654  0.000000000     0.000000000  0.118469591  0.000000000
     0.000000000  0.000000000 21.330738491     0.000000000  0.000000000  0.046880702

  length of vectors
     8.440984654  8.440984654 21.330738491     0.118469591  0.118469591  0.046880702

  position of ions in fractional coordinates (direct lattice)
     0.500000000  0.500000000  0.765053803
     0.500000000  0.500000000  0.818817521

  ion indices of the primitive-cell ions
   primitive index   ion index
                 1           1
                 2           2

----------------------------------------------------------------------------------------

 
 
 KPOINTS: pymatgen v2020.8.13 with grid density = 

Automatic generation of k-mesh.
 Grid dimensions read from file:
 generate k-points for:    2    2    1

 Generating k-lattice:

  Cartesian coordinates                     Fractional coordinates (reciprocal lattice)
     0.059234796  0.000000000  0.000000000     0.500000000  0.000000000  0.000000000
     0.000000000  0.059234796  0.000000000     0.000000000  0.500000000  0.000000000
     0.000000000  0.000000000  0.046880702     0.000000000  0.000000000  1.000000000

  Length of vectors
     0.059234796  0.059234796  0.046880702

  Shift w.r.t. Gamma in fractional coordinates (k-lattice)
     0.000000000  0.000000000  0.000000000

 
 Subroutine IBZKPT returns following result:
 ===========================================
 
 Found      3 irreducible k-points:
 
 Following reciprocal coordinates:
            Coordinates               Weight
  0.000000  0.000000  0.000000      1.000000
  0.500000  0.000000  0.000000      2.000000
  0.500000  0.500000  0.000000      1.000000
 
 Following cartesian coordinates:
            Coordinates               Weight
  0.000000  0.000000  0.000000      1.000000
  0.059235  0.000000  0.000000      2.000000
  0.059235  0.059235  0.000000      1.000000
 


--------------------------------------------------------------------------------------------------------




 Dimension of arrays:
   k-points           NKPTS =      3   k-points in BZ     NKDIM =      3   number of bands    NBANDS=    152
   number of dos      NEDOS =    301   number of ions     NIONS =      2
   non local maximal  LDIM  =      4   non local SUM 2l+1 LMDIM =      8
   total plane-waves  NPLWV = 882000
   max r-space proj   IRMAX =      1   max aug-charges    IRDMAX=   7728
   dimension x,y,z NGX =    70 NGY =   70 NGZ =  180
   dimension x,y,z NGXF=   140 NGYF=  140 NGZF=  360
   support grid    NGXF=   140 NGYF=  140 NGZF=  360
   ions per type =               1   1
   NGX,Y,Z   is equivalent  to a cutoff of  13.79, 13.79, 14.03 a.u.
   NGXF,Y,Z  is equivalent  to a cutoff of  27.57, 27.57, 28.06 a.u.

 SYSTEM =  MgO-rocksalt                            
 POSCAR =   C  O                                   

 Startparameter for this run:
   NWRITE =      2    write-flag & timer
   PREC   = accura    normal or accurate (medium, high low for compatibility)
   ISTART =      0    job   : 0-new  1-cont  2-samecut
   ICHARG =      2    charge: 1-file 2-atom 10-const
   ISPIN  =      1    spin polarized calculation?
   LNONCOLLINEAR =      F non collinear calculations
   LSORBIT =      F    spin-orbit coupling
   INIWAV =      1    electr: 0-lowe 1-rand  2-diag
   LASPH  =      T    aspherical Exc in radial PAW
 Electronic Relaxation 1
   ENCUT  =  600.0 eV  44.10 Ry    6.64 a.u.  16.86 16.86 42.60*2*pi/ulx,y,z
   ENINI  =  600.0     initial cutoff
   ENAUG  =  644.9 eV  augmentation charge cutoff
   NELM   =    200;   NELMIN=  8; NELMDL= -5     # of ELM steps 
   EDIFF  = 0.1E-04   stopping-criterion for ELM
   LREAL  =      F    real-space projection
   NLSPLINE    = F    spline interpolate recip. space projectors
   LCOMPAT=      F    compatible to vasp.4.4
   GGA_COMPAT  = T    GGA compatible to vasp.4.4-vasp.4.6
   LMAXPAW     = -100 max onsite density
   LMAXMIX     =    2 max onsite mixed and CHGCAR
   VOSKOWN=      0    Vosko Wilk Nusair interpolation
   ROPT   =    0.00000   0.00000
 Ionic relaxation
   EDIFFG = 0.1E-03   stopping-criterion for IOM
   NSW    =      0    number of steps for IOM
   NBLOCK =      1;   KBLOCK =      1    inner block; outer block 
   IBRION =     -1    ionic relax: 0-MD 1-quasi-New 2-CG
   NFREE  =      0    steps in history (QN), initial steepest desc. (CG)
   ISIF   =      2    stress and relaxation
   IWAVPR =     10    prediction:  0-non 1-charg 2-wave 3-comb
   ISYM   =      2    0-nonsym 1-usesym 2-fastsym
   LCORR  =      T    Harris-Foulkes like correction to forces

   POTIM  = 0.5000    time-step for ionic-motion
   TEIN   =    0.0    initial temperature
   TEBEG  =    0.0;   TEEND  =   0.0 temperature during run
   SMASS  =  -3.00    Nose mass-parameter (am)
   estimated Nose-frequenzy (Omega)   =  0.10E-29 period in steps = 0.13E+47 mass=  -0.163E-26a.u.
   SCALEE = 1.0000    scale energy and forces
   NPACO  =    256;   APACO  = 10.0  distance and # of slots for P.C.
   PSTRESS=    0.0 pullay stress

  Mass of Ions in am
   POMASS =  12.01 16.00
  Ionic Valenz
   ZVAL   =   4.00  6.00
  Atomic Wigner-Seitz radii
   RWIGS  =  -1.00 -1.00
  virtual crystal weights 
   VCA    =   1.00  1.00
   NELECT =      10.0000    total number of electrons
   NUPDOWN=      -1.0000    fix difference up-down

 DOS related values:
   EMIN   =  10.00;   EMAX   =-10.00  energy-range for DOS
   EFERMI =   0.00
   ISMEAR =     0;   SIGMA  =   0.05  broadening in eV -4-tet -1-fermi 0-gaus

 Electronic relaxation 2 (details)
   IALGO  =     58    algorithm
   LDIAG  =      T    sub-space diagonalisation (order eigenvalues)
   LSUBROT=      F    optimize rotation matrix (better conditioning)
   TURBO    =      0    0=normal 1=particle mesh
   IRESTART =      0    0=no restart 2=restart with 2 vectors
   NREBOOT  =      0    no. of reboots
   NMIN     =      0    reboot dimension
   EREF     =   0.00    reference energy to select bands
   IMIX   =      4    mixing-type and parameters
     AMIX     =   0.40;   BMIX     =  1.00
     AMIX_MAG =   1.60;   BMIX_MAG =  1.00
     AMIN     =   0.10
     WC   =   100.;   INIMIX=   1;  MIXPRE=   1;  MAXMIX= -45

 Intra band minimization:
   WEIMIN = 0.0000     energy-eigenvalue tresh-hold
   EBREAK =  0.16E-07  absolut break condition
   DEPER  =   0.30     relativ break condition  

   TIME   =   0.40     timestep for ELM

  volume/ion in A,a.u.               =     759.91      5128.13
  Fermi-wavevector in a.u.,A,eV,Ry     =   0.306769  0.579708  1.280402  0.094107
  Thomas-Fermi vector in A             =   1.181026
 
 Write flags
   LWAVE        =      F    write WAVECAR
   LDOWNSAMPLE  =      F    k-point downsampling of WAVECAR
   LCHARG       =      F    write CHGCAR
   LVTOT        =      F    write LOCPOT, total local potential
   LVHAR        =      F    write LOCPOT, Hartree potential only
   LELF         =      F    write electronic localiz. function (ELF)
   LORBIT       =      0    0 simple, 1 ext, 2 COOP (PROOUT), +10 PAW based schemes


 Dipole corrections
   LMONO  =      F    monopole corrections only (constant potential shift)
   LDIPOL =      T    correct potential (dipole corrections)
   IDIPOL =      3    1-x, 2-y, 3-z, 4-all directions 
   EPSILON=  1.0000000 bulk dielectric constant

 Exchange correlation treatment:
   GGA     =    PE    GGA type
   LEXCH   =     8    internal setting for exchange type
   LIBXC   =     F    Libxc                    
   VOSKOWN =     0    Vosko Wilk Nusair interpolation
   LHFCALC =     F    Hartree Fock is set to
   LHFONE  =     F    Hartree Fock one center treatment
   AEXX    =    0.0000 exact exchange contribution

 Linear response parameters
   LEPSILON=     F    determine dielectric tensor
   LRPA    =     F    only Hartree local field effects (RPA)
   LNABLA  =     F    use nabla operator in PAW spheres
   LVEL    =     F    velocity operator in full k-point grid
   CSHIFT  =0.1000    complex shift for real part using Kramers Kronig
   OMEGAMAX=  -1.0    maximum frequency
   DEG_THRESHOLD= 0.2000000E-02 threshold for treating states as degnerate
   RTIME   =   -0.100 relaxation time in fs
  (WPLASMAI=    0.000 imaginary part of plasma frequency in eV, 0.658/RTIME)
   DFIELD  = 0.0000000 0.0000000 0.0000000 field for delta impulse in time
 
  Optional k-point grid parameters
   LKPOINTS_OPT  =     F    use optional k-point grid
   KPOINTS_OPT_MODE=     1    mode for optional k-point grid
 
 Orbital magnetization related:
   ORBITALMAG=     F  switch on orbital magnetization
   LCHIMAG   =     F  perturbation theory with respect to B field
   DQ        =  0.001000  dq finite difference perturbation B field
   LLRAUG    =     F  two centre corrections for induced B field



--------------------------------------------------------------------------------------------------------


 Static calculation
 charge density and potential will be updated during run
 non-spin polarized calculation
 Conjugate gradient for all bands (Freysoldt, et al. PRB 79, 241103 (2009))
 preconditioned conjugated gradient                                        
 perform sub-space diagonalisation
    before iterative eigenvector-optimisation
 modified Broyden-mixing scheme, WC =      100.0
 initial mixing is a Kerker type mixing with AMIX =  0.4000 and BMIX =      1.0000
 Hartree-type preconditioning will be used
 using additional bands          147
 reciprocal scheme for non local part
 use partial core corrections
 no Harris-corrections to forces 
 use gradient corrections 
 use of overlap-Matrix (Vanderbilt PP)
 Gauss-broadening in eV      SIGMA  =   0.05


--------------------------------------------------------------------------------------------------------


  energy-cutoff  :      600.00
  volume of cell :     1519.82
      direct lattice vectors                 reciprocal lattice vectors
     8.440984654  0.000000000  0.000000000     0.118469591  0.000000000  0.000000000
     0.000000000  8.440984654  0.000000000     0.000000000  0.118469591  0.000000000
     0.000000000  0.000000000 21.330738491     0.000000000  0.000000000  0.046880702

  length of vectors
     8.440984654  8.440984654 21.330738491     0.118469591  0.118469591  0.046880702


 
 k-points in units of 2pi/SCALE and weight: pymatgen v2020.8.13 with grid density = 
   0.00000000  0.00000000  0.00000000       0.250
   0.05923480  0.00000000  0.00000000       0.500
   0.05923480  0.05923480  0.00000000       0.250
 
 k-points in reciprocal lattice and weights: pymatgen v2020.8.13 with grid density = 
   0.00000000  0.00000000  0.00000000       0.250
   0.50000000  0.00000000  0.00000000       0.500
   0.50000000  0.50000000  0.00000000       0.250
 
 position of ions in fractional coordinates (direct lattice) 
   0.50000000  0.50000000  0.76505380
   0.50000000  0.50000000  0.81881752
 
 position of ions in cartesian coordinates  (Angst):
   4.22049233  4.22049233 16.31916259
   4.22049233  4.22049233 17.46598241
 


--------------------------------------------------------------------------------------------------------


 k-point   1 :   0.0000 0.0000 0.0000  plane waves:   50745
 k-point   2 :   0.5000 0.0000 0.0000  plane waves:   50798
 k-point   3 :   0.5000 0.5000 0.0000  plane waves:   50752

 maximum and minimum number of plane-waves per node :     25438    25340

 maximum number of plane-waves:     50798
 maximum index in each direction: 
   IXMAX=   16   IYMAX=   16   IZMAX=   42
   IXMIN=  -17   IYMIN=  -17   IZMIN=  -42


 parallel 3D FFT for wavefunctions:
    minimum data exchange during FFTs selected (reduces bandwidth)
 parallel 3D FFT for charge:
    minimum data exchange during FFTs selected (reduces bandwidth)


 total amount of memory used by VASP MPI-rank0    79451. kBytes
=======================================================================

   base      :      30000. kBytes
   nonl-proj :      10622. kBytes
   fftplans  :      14615. kBytes
   grid      :      20512. kBytes
   one-center:          3. kBytes
   wavefun   :       3699. kBytes
 
     INWAV:  cpu time      0.0000: real time      0.0000
 Broyden mixing: mesh for mixing (old mesh)
   NGX = 33   NGY = 33   NGZ = 85
  (NGX  =140   NGY  =140   NGZ  =360)
  gives a total of  92565 points

 initial charge density was supplied:
 charge density of overlapping atoms calculated
 number of electron      10.0000000 magnetization 
 keeping initial charge density in first step


--------------------------------------------------------------------------------------------------------


 Maximum index for augmentation-charges            0 (set IRDMAX)


--------------------------------------------------------------------------------------------------------


 First call to EWALD:  gamma=   0.154
 Maximum number of real-space cells 4x 4x 2
 Maximum number of reciprocal cells 2x 2x 5

    FEWALD:  cpu time      0.0010: real time      0.0010


--------------------------------------- Iteration      1(   1)  ---------------------------------------


    POTLOK:  cpu time      0.1065: real time      0.1068
    SETDIJ:  cpu time      0.0310: real time      0.0311
    TRIAL :  cpu time      0.7953: real time      0.7985
    CORREC:  cpu time      0.0001: real time      0.0001
    --------------------------------------------
      LOOP:  cpu time      0.9346: real time      0.9391

 eigenvalue-minimisations  :   912
 total energy-change (2. order) : 0.4656130E+02  (-0.4098521E+03)
 number of electron      10.0000000 magnetization 
 augmentation part       10.0000000 magnetization 

 DIPCOR: dipole corrections for dipol
 direction  3 min pos     1,
 dipolmoment           0.000000      0.000000     -0.000250 electrons x Angstroem
 Tr[quadrupol]      -355.254441

 energy correction for charged system         0.000000 eV
 dipol+quadrupol energy correction           -0.000000 eV
 added-field ion interaction          0.001889 eV  (added to PSCEN)


 Free energy of the ion-electron system (eV)
  ---------------------------------------------------
  alpha Z        PSCENC =         0.28939502
  Ewald energy   TEWEN  =       192.88447950
  -Hartree energ DENC   =      -654.07813843
  -exchange      EXHF   =         0.00000000
  -V(xc)+E(xc)   XCENC  =        39.18403306
  PAW double counting   =       455.07152327     -457.43959975
  entropy T*S    EENTRO =        -0.00000000
  eigenvalues    EBANDS =      -108.86266405
  atomic energy  EATOM  =       579.51226814
  ---------------------------------------------------
  free energy    TOTEN  =        46.56129677 eV

  energy without entropy =       46.56129677  energy(sigma->0) =       46.56129677


--------------------------------------------------------------------------------------------------------




--------------------------------------- Iteration      1(   2)  ---------------------------------------


    TRIAL :  cpu time      1.2746: real time      1.2798
    CORREC:  cpu time      0.0001: real time      0.0001
    --------------------------------------------
      LOOP:  cpu time      1.2757: real time      1.2837

 eigenvalue-minimisations  :  1368
 total energy-change (2. order) :-0.6199358E+02  (-0.6199358E+02)
 number of electron      10.0000000 magnetization 
 augmentation part       10.0000000 magnetization 

 DIPCOR: dipole corrections for dipol
 direction  3 min pos     1,
 dipolmoment           0.000000      0.000000     -0.000250 electrons x Angstroem
 Tr[quadrupol]      -355.254441

 energy correction for charged system         0.000000 eV
 dipol+quadrupol energy correction           -0.000000 eV
 added-field ion interaction          0.001889 eV  (added to PSCEN)


 Free energy of the ion-electron system (eV)
  ---------------------------------------------------
  alpha Z        PSCENC =         0.28939502
  Ewald energy   TEWEN  =       192.88447950
  -Hartree energ DENC   =      -654.07813843
  -exchange      EXHF   =         0.00000000
  -V(xc)+E(xc)   XCENC  =        39.18403306
  PAW double counting   =       455.07152327     -457.43959975
  entropy T*S    EENTRO =        -0.00000000
  eigenvalues    EBANDS =      -170.85624400
  atomic energy  EATOM  =       579.51226814
  ---------------------------------------------------
  free energy    TOTEN  =       -15.43228319 eV

  energy without entropy =      -15.43228319  energy(sigma->0) =      -15.43228319


--------------------------------------------------------------------------------------------------------




--------------------------------------- Iteration      1(   3)  ---------------------------------------


    TRIAL :  cpu time      0.6605: real time      0.6633
    CORREC:  cpu time      0.0001: real time      0.0001
    --------------------------------------------
      LOOP:  cpu time      0.6607: real time      0.6636

 eigenvalue-minimisations  :   912
 total energy-change (2. order) :-0.1603763E+00  (-0.1603763E+00)
 number of electron      10.0000000 magnetization 
 augmentation part       10.0000000 magnetization 

 DIPCOR: dipole corrections for dipol
 direction  3 min pos     1,
 dipolmoment           0.000000      0.000000     -0.000250 electrons x Angstroem
 Tr[quadrupol]      -355.254441

 energy correction for charged system         0.000000 eV
 dipol+quadrupol energy correction           -0.000000 eV
 added-field ion interaction          0.001889 eV  (added to PSCEN)


 Free energy of the ion-electron system (eV)
  ---------------------------------------------------
  alpha Z        PSCENC =         0.28939502
  Ewald energy   TEWEN  =       192.88447950
  -Hartree energ DENC   =      -654.07813843
  -exchange      EXHF   =         0.00000000
  -V(xc)+E(xc)   XCENC  =        39.18403306
  PAW double counting   =       455.07152327     -457.43959975
  entropy T*S    EENTRO =        -0.00000000
  eigenvalues    EBANDS =      -171.01662028
  atomic energy  EATOM  =       579.51226814
  ---------------------------------------------------
  free energy    TOTEN  =       -15.59265946 eV

  energy without entropy =      -15.59265946  energy(sigma->0) =      -15.59265946


--------------------------------------------------------------------------------------------------------




--------------------------------------- Iteration      1(   4)  ---------------------------------------


    TRIAL :  cpu time      2.3075: real time      2.3160
    CORREC:  cpu time      0.0001: real time      0.0001
    --------------------------------------------
      LOOP:  cpu time      2.3077: real time      2.3163

 eigenvalue-minimisations  :  1824
 total energy-change (2. order) :-0.4561206E-03  (-0.4561206E-03)
 number of electron      10.0000000 magnetization 
 augmentation part       10.0000000 magnetization 

 DIPCOR: dipole corrections for dipol
 direction  3 min pos     1,
 dipolmoment           0.000000      0.000000     -0.000250 electrons x Angstroem
 Tr[quadrupol]      -355.254441

 energy correction for charged system         0.000000 eV
 dipol+quadrupol energy correction           -0.000000 eV
 added-field ion interaction          0.001889 eV  (added to PSCEN)


 Free energy of the ion-electron system (eV)
  ---------------------------------------------------
  alpha Z        PSCENC =         0.28939502
  Ewald energy   TEWEN  =       192.88447950
  -Hartree energ DENC   =      -654.07813843
  -exchange      EXHF   =         0.00000000
  -V(xc)+E(xc)   XCENC  =        39.18403306
  PAW double counting   =       455.07152327     -457.43959975
  entropy T*S    EENTRO =        -0.00000000
  eigenvalues    EBANDS =      -171.01707640
  atomic energy  EATOM  =       579.51226814
  ---------------------------------------------------
  free energy    TOTEN  =       -15.59311558 eV

  energy without entropy =      -15.59311558  energy(sigma->0) =      -15.59311558


--------------------------------------------------------------------------------------------------------




--------------------------------------- Iteration      1(   5)  ---------------------------------------


    TRIAL :  cpu time      0.6742: real time      0.6771
    CORREC:  cpu time      0.0001: real time      0.0001
    CHARGE:  cpu time      0.0861: real time      0.0864
    --------------------------------------------
      LOOP:  cpu time      0.7605: real time      0.7638

 eigenvalue-minimisations  :   912
 total energy-change (2. order) :-0.3234504E-08  (-0.3212651E-08)
 number of electron       9.9999999 magnetization 
 augmentation part        0.7268815 magnetization 

 DIPCOR: dipole corrections for dipol
 direction  3 min pos     1,
 dipolmoment           0.000000      0.000000     -0.000250 electrons x Angstroem
 Tr[quadrupol]      -355.254441

 energy correction for charged system         0.000000 eV
 dipol+quadrupol energy correction           -0.000000 eV
 added-field ion interaction          0.001889 eV  (added to PSCEN)


 Free energy of the ion-electron system (eV)
  ---------------------------------------------------
  alpha Z        PSCENC =         0.28939502
  Ewald energy   TEWEN  =       192.88447950
  -Hartree energ DENC   =      -654.07813843
  -exchange      EXHF   =         0.00000000
  -V(xc)+E(xc)   XCENC  =        39.18403306
  PAW double counting   =       455.07152327     -457.43959975
  entropy T*S    EENTRO =        -0.00000000
  eigenvalues    EBANDS =      -171.01707640
  atomic energy  EATOM  =       579.51226814
  ---------------------------------------------------
  free energy    TOTEN  =       -15.59311558 eV

  energy without entropy =      -15.59311558  energy(sigma->0) =      -15.59311558


--------------------------------------------------------------------------------------------------------




--------------------------------------- Iteration      1(   6)  ---------------------------------------


    POTLOK:  cpu time      0.0666: real time      0.0668
    SETDIJ:  cpu time      0.0309: real time      0.0310
    TRIAL :  cpu time      0.2473: real time      0.2485
    CORREC:  cpu time      0.2712: real time      0.2722
    CHARGE:  cpu time      0.0779: real time      0.0782
    --------------------------------------------
      LOOP:  cpu time      0.6959: real time      0.6986

 eigenvalue-minimisations  :     0
 total energy-change (2. order) : 0.1775192E+01  (-0.7854226E+00)
 number of electron      10.0000000 magnetization 
 augmentation part        0.6713432 magnetization 

 DIPCOR: dipole corrections for dipol
 direction  3 min pos     1,
 dipolmoment           0.000000      0.000000     -0.005338 electrons x Angstroem
 Tr[quadrupol]      -355.147078

 energy correction for charged system         0.000000 eV
 dipol+quadrupol energy correction           -0.000002 eV
 added-field ion interaction          0.040307 eV  (added to PSCEN)


 Free energy of the ion-electron system (eV)
  ---------------------------------------------------
  alpha Z        PSCENC =        -0.79119037
  Ewald energy   TEWEN  =       192.88447950
  -Hartree energ DENC   =      -700.47122472
  -exchange      EXHF   =         0.00000000
  -V(xc)+E(xc)   XCENC  =        41.81211226
  PAW double counting   =       842.45895461     -845.29453086
  entropy T*S    EENTRO =        -0.00000000
  eigenvalues    EBANDS =      -123.92879190
  atomic energy  EATOM  =       579.51226814
  ---------------------------------------------------
  free energy    TOTEN  =       -13.81792334 eV

  energy without entropy =      -13.81792334  energy(sigma->0) =      -13.81792334


--------------------------------------------------------------------------------------------------------




--------------------------------------- Iteration      1(   7)  ---------------------------------------


    POTLOK:  cpu time      0.0599: real time      0.0601
    SETDIJ:  cpu time      0.0300: real time      0.0301
    TRIAL :  cpu time      0.2216: real time      0.2227
    CORREC:  cpu time      0.2681: real time      0.2691
    CHARGE:  cpu time      0.0761: real time      0.0764
    --------------------------------------------
      LOOP:  cpu time      0.6573: real time      0.6599

 eigenvalue-minimisations  :     0
 total energy-change (2. order) :-0.7866772E+00  (-0.1227912E+00)
 number of electron      10.0000000 magnetization 
 augmentation part        0.6550565 magnetization 

 DIPCOR: dipole corrections for dipol
 direction  3 min pos     1,
 dipolmoment           0.000000      0.000000     -0.009856 electrons x Angstroem
 Tr[quadrupol]      -355.302885

 energy correction for charged system         0.000000 eV
 dipol+quadrupol energy correction           -0.000006 eV
 added-field ion interaction          0.074422 eV  (added to PSCEN)


 Free energy of the ion-electron system (eV)
  ---------------------------------------------------
  alpha Z        PSCENC =         0.16592178
  Ewald energy   TEWEN  =       192.88447950
  -Hartree energ DENC   =      -680.74259093
  -exchange      EXHF   =         0.00000000
  -V(xc)+E(xc)   XCENC  =        40.73697310
  PAW double counting   =       829.89610205     -832.48319751
  entropy T*S    EENTRO =        -0.00000000
  eigenvalues    EBANDS =      -144.57455668
  atomic energy  EATOM  =       579.51226814
  ---------------------------------------------------
  free energy    TOTEN  =       -14.60460055 eV

  energy without entropy =      -14.60460055  energy(sigma->0) =      -14.60460055


--------------------------------------------------------------------------------------------------------




--------------------------------------- Iteration      1(   8)  ---------------------------------------


    POTLOK:  cpu time      0.0604: real time      0.0606
    SETDIJ:  cpu time      0.0301: real time      0.0302
    TRIAL :  cpu time      0.2293: real time      0.2303
    CORREC:  cpu time      0.2680: real time      0.2689
    CHARGE:  cpu time      0.0760: real time      0.0762
    --------------------------------------------
      LOOP:  cpu time      0.6643: real time      0.6669

 eigenvalue-minimisations  :     0
 total energy-change (2. order) :-0.1225758E+00  (-0.4593542E-01)
 number of electron      10.0000000 magnetization 
 augmentation part        0.6532881 magnetization 

 DIPCOR: dipole corrections for dipol
 direction  3 min pos     1,
 dipolmoment           0.000000      0.000000     -0.036478 electrons x Angstroem
 Tr[quadrupol]      -355.632399

 energy correction for charged system         0.000000 eV
 dipol+quadrupol energy correction           -0.000079 eV
 added-field ion interaction          0.275444 eV  (added to PSCEN)


 Free energy of the ion-electron system (eV)
  ---------------------------------------------------
  alpha Z        PSCENC =         0.45696276
  Ewald energy   TEWEN  =       192.88447950
  -Hartree energ DENC   =      -677.51000676
  -exchange      EXHF   =         0.00000000
  -V(xc)+E(xc)   XCENC  =        40.56068636
  PAW double counting   =       836.16373157     -838.63969634
  entropy T*S    EENTRO =        -0.00000000
  eigenvalues    EBANDS =      -148.15560163
  atomic energy  EATOM  =       579.51226814
  ---------------------------------------------------
  free energy    TOTEN  =       -14.72717639 eV

  energy without entropy =      -14.72717639  energy(sigma->0) =      -14.72717639


--------------------------------------------------------------------------------------------------------




--------------------------------------- Iteration      1(   9)  ---------------------------------------


    POTLOK:  cpu time      0.0598: real time      0.0600
    SETDIJ:  cpu time      0.0303: real time      0.0303
    TRIAL :  cpu time      0.2236: real time      0.2247
    CORREC:  cpu time      0.2673: real time      0.2683
    CHARGE:  cpu time      0.0756: real time      0.0759
    --------------------------------------------
      LOOP:  cpu time      0.6574: real time      0.6601

 eigenvalue-minimisations  :     0
 total energy-change (2. order) :-0.4580787E-01  (-0.1672988E-01)
 number of electron      10.0000000 magnetization 
 augmentation part        0.6539563 magnetization 

 DIPCOR: dipole corrections for dipol
 direction  3 min pos     1,
 dipolmoment           0.000000      0.000000     -0.040536 electrons x Angstroem
 Tr[quadrupol]      -355.670253

 energy correction for charged system         0.000000 eV
 dipol+quadrupol energy correction           -0.000098 eV
 added-field ion interaction          0.306083 eV  (added to PSCEN)


 Free energy of the ion-electron system (eV)
  ---------------------------------------------------
  alpha Z        PSCENC =         0.60093808
  Ewald energy   TEWEN  =       192.88447950
  -Hartree energ DENC   =      -675.74236036
  -exchange      EXHF   =         0.00000000
  -V(xc)+E(xc)   XCENC  =        40.46832949
  PAW double counting   =       839.26560119     -841.72605119
  entropy T*S    EENTRO =        -0.00000000
  eigenvalues    EBANDS =      -150.03618911
  atomic energy  EATOM  =       579.51226814
  ---------------------------------------------------
  free energy    TOTEN  =       -14.77298426 eV

  energy without entropy =      -14.77298426  energy(sigma->0) =      -14.77298426


--------------------------------------------------------------------------------------------------------




--------------------------------------- Iteration      1(  10)  ---------------------------------------


    POTLOK:  cpu time      0.0594: real time      0.0596
    SETDIJ:  cpu time      0.0306: real time      0.0307
    TRIAL :  cpu time      0.2217: real time      0.2227
    CORREC:  cpu time      0.2629: real time      0.2639
    CHARGE:  cpu time      0.0760: real time      0.0763
    --------------------------------------------
      LOOP:  cpu time      0.6519: real time      0.6545

 eigenvalue-minimisations  :     0
 total energy-change (2. order) :-0.1668794E-01  (-0.4677914E-02)
 number of electron      10.0000000 magnetization 
 augmentation part        0.6543335 magnetization 

 DIPCOR: dipole corrections for dipol
 direction  3 min pos     1,
 dipolmoment           0.000000      0.000000     -0.035678 electrons x Angstroem
 Tr[quadrupol]      -355.600339

 energy correction for charged system         0.000000 eV
 dipol+quadrupol energy correction           -0.000076 eV
 added-field ion interaction          0.269398 eV  (added to PSCEN)


 Free energy of the ion-electron system (eV)
  ---------------------------------------------------
  alpha Z        PSCENC =         0.59215323
  Ewald energy   TEWEN  =       192.88447950
  -Hartree energ DENC   =      -674.84817013
  -exchange      EXHF   =         0.00000000
  -V(xc)+E(xc)   XCENC  =        40.42042747
  PAW double counting   =       838.34194895     -840.80814077
  entropy T*S    EENTRO =        -0.00000000
  eigenvalues    EBANDS =      -150.88463859
  atomic energy  EATOM  =       579.51226814
  ---------------------------------------------------
  free energy    TOTEN  =       -14.78967220 eV

  energy without entropy =      -14.78967220  energy(sigma->0) =      -14.78967220


--------------------------------------------------------------------------------------------------------




--------------------------------------- Iteration      1(  11)  ---------------------------------------


    POTLOK:  cpu time      0.0592: real time      0.0594
    SETDIJ:  cpu time      0.0304: real time      0.0305
    TRIAL :  cpu time      0.2182: real time      0.2192
    CORREC:  cpu time      0.2628: real time      0.2638
    CHARGE:  cpu time      0.0757: real time      0.0759
    --------------------------------------------
      LOOP:  cpu time      0.6476: real time      0.6501

 eigenvalue-minimisations  :     0
 total energy-change (2. order) :-0.4674609E-02  (-0.1234185E-02)
 number of electron      10.0000000 magnetization 
 augmentation part        0.6544915 magnetization 

 DIPCOR: dipole corrections for dipol
 direction  3 min pos     1,
 dipolmoment           0.000000      0.000000     -0.031536 electrons x Angstroem
 Tr[quadrupol]      -355.546752

 energy correction for charged system         0.000000 eV
 dipol+quadrupol energy correction           -0.000059 eV
 added-field ion interaction          0.238123 eV  (added to PSCEN)


 Free energy of the ion-electron system (eV)
  ---------------------------------------------------
  alpha Z        PSCENC =         0.54439274
  Ewald energy   TEWEN  =       192.88447950
  -Hartree energ DENC   =      -674.59444109
  -exchange      EXHF   =         0.00000000
  -V(xc)+E(xc)   XCENC  =        40.40421912
  PAW double counting   =       835.93700241     -838.40834482
  entropy T*S    EENTRO =        -0.00000000
  eigenvalues    EBANDS =      -151.07392281
  atomic energy  EATOM  =       579.51226814
  ---------------------------------------------------
  free energy    TOTEN  =       -14.79434681 eV

  energy without entropy =      -14.79434681  energy(sigma->0) =      -14.79434681


--------------------------------------------------------------------------------------------------------




--------------------------------------- Iteration      1(  12)  ---------------------------------------


    POTLOK:  cpu time      0.0587: real time      0.0589
    SETDIJ:  cpu time      0.0303: real time      0.0303
    TRIAL :  cpu time      0.2291: real time      0.2301
    CORREC:  cpu time      0.2620: real time      0.2630
    CHARGE:  cpu time      0.0777: real time      0.0780
    --------------------------------------------
      LOOP:  cpu time      0.6586: real time      0.6612

 eigenvalue-minimisations  :     0
 total energy-change (2. order) :-0.1234055E-02  (-0.2930558E-03)
 number of electron      10.0000000 magnetization 
 augmentation part        0.6544222 magnetization 

 DIPCOR: dipole corrections for dipol
 direction  3 min pos     1,
 dipolmoment           0.000000      0.000000     -0.029561 electrons x Angstroem
 Tr[quadrupol]      -355.522470

 energy correction for charged system         0.000000 eV
 dipol+quadrupol energy correction           -0.000052 eV
 added-field ion interaction          0.223209 eV  (added to PSCEN)


 Free energy of the ion-electron system (eV)
  ---------------------------------------------------
  alpha Z        PSCENC =         0.51853701
  Ewald energy   TEWEN  =       192.88447950
  -Hartree energ DENC   =      -674.46512446
  -exchange      EXHF   =         0.00000000
  -V(xc)+E(xc)   XCENC  =        40.39467510
  PAW double counting   =       833.98745728     -836.46240646
  entropy T*S    EENTRO =        -0.00000000
  eigenvalues    EBANDS =      -151.16546698
  atomic energy  EATOM  =       579.51226814
  ---------------------------------------------------
  free energy    TOTEN  =       -14.79558086 eV

  energy without entropy =      -14.79558086  energy(sigma->0) =      -14.79558086


--------------------------------------------------------------------------------------------------------




--------------------------------------- Iteration      1(  13)  ---------------------------------------


    POTLOK:  cpu time      0.0585: real time      0.0587
    SETDIJ:  cpu time      0.0302: real time      0.0304
    TRIAL :  cpu time      0.2234: real time      0.2244
    CORREC:  cpu time      0.2629: real time      0.2639
    CHARGE:  cpu time      0.0767: real time      0.0769
    --------------------------------------------
      LOOP:  cpu time      0.6529: real time      0.6555

 eigenvalue-minimisations  :     0
 total energy-change (2. order) :-0.2930834E-03  (-0.6872550E-04)
 number of electron      10.0000000 magnetization 
 augmentation part        0.6543740 magnetization 

 DIPCOR: dipole corrections for dipol
 direction  3 min pos     1,
 dipolmoment           0.000000      0.000000     -0.028628 electrons x Angstroem
 Tr[quadrupol]      -355.511693

 energy correction for charged system         0.000000 eV
 dipol+quadrupol energy correction           -0.000049 eV
 added-field ion interaction          0.216165 eV  (added to PSCEN)


 Free energy of the ion-electron system (eV)
  ---------------------------------------------------
  alpha Z        PSCENC =         0.50736382
  Ewald energy   TEWEN  =       192.88447950
  -Hartree energ DENC   =      -674.43641717
  -exchange      EXHF   =         0.00000000
  -V(xc)+E(xc)   XCENC  =        40.39170319
  PAW double counting   =       832.88289048     -835.35875831
  entropy T*S    EENTRO =        -0.00000000
  eigenvalues    EBANDS =      -151.17940360
  atomic energy  EATOM  =       579.51226814
  ---------------------------------------------------
  free energy    TOTEN  =       -14.79587395 eV

  energy without entropy =      -14.79587395  energy(sigma->0) =      -14.79587395


--------------------------------------------------------------------------------------------------------




--------------------------------------- Iteration      1(  14)  ---------------------------------------


    POTLOK:  cpu time      0.0588: real time      0.0591
    SETDIJ:  cpu time      0.0304: real time      0.0305
    TRIAL :  cpu time      0.2273: real time      0.2283
    CORREC:  cpu time      0.2601: real time      0.2610
    CHARGE:  cpu time      0.0759: real time      0.0762
    --------------------------------------------
      LOOP:  cpu time      0.6539: real time      0.6564

 eigenvalue-minimisations  :     0
 total energy-change (2. order) :-0.6866891E-04  (-0.1699745E-04)
 number of electron      10.0000000 magnetization 
 augmentation part        0.6543441 magnetization 

 DIPCOR: dipole corrections for dipol
 direction  3 min pos     1,
 dipolmoment           0.000000      0.000000     -0.028207 electrons x Angstroem
 Tr[quadrupol]      -355.507180

 energy correction for charged system         0.000000 eV
 dipol+quadrupol energy correction           -0.000047 eV
 added-field ion interaction          0.212988 eV  (added to PSCEN)


 Free energy of the ion-electron system (eV)
  ---------------------------------------------------
  alpha Z        PSCENC =         0.50177573
  Ewald energy   TEWEN  =       192.88447950
  -Hartree energ DENC   =      -674.46293895
  -exchange      EXHF   =         0.00000000
  -V(xc)+E(xc)   XCENC  =        40.39257805
  PAW double counting   =       832.36126990     -834.83720319
  entropy T*S    EENTRO =        -0.00000000
  eigenvalues    EBANDS =      -151.14817180
  atomic energy  EATOM  =       579.51226814
  ---------------------------------------------------
  free energy    TOTEN  =       -14.79594262 eV

  energy without entropy =      -14.79594262  energy(sigma->0) =      -14.79594262


--------------------------------------------------------------------------------------------------------




--------------------------------------- Iteration      1(  15)  ---------------------------------------


    POTLOK:  cpu time      0.0583: real time      0.0585
    SETDIJ:  cpu time      0.0305: real time      0.0306
    TRIAL :  cpu time      0.2182: real time      0.2192
    CORREC:  cpu time      0.2595: real time      0.2605
    CHARGE:  cpu time      0.0754: real time      0.0757
    --------------------------------------------
      LOOP:  cpu time      0.6425: real time      0.6451

 eigenvalue-minimisations  :     0
 total energy-change (2. order) :-0.1697165E-04  (-0.4647401E-05)
 number of electron      10.0000000 magnetization 
 augmentation part        0.6543186 magnetization 

 DIPCOR: dipole corrections for dipol
 direction  3 min pos     1,
 dipolmoment           0.000000      0.000000     -0.028084 electrons x Angstroem
 Tr[quadrupol]      -355.506117

 energy correction for charged system         0.000000 eV
 dipol+quadrupol energy correction           -0.000047 eV
 added-field ion interaction          0.212058 eV  (added to PSCEN)


 Free energy of the ion-electron system (eV)
  ---------------------------------------------------
  alpha Z        PSCENC =         0.49975143
  Ewald energy   TEWEN  =       192.88447950
  -Hartree energ DENC   =      -674.48317030
  -exchange      EXHF   =         0.00000000
  -V(xc)+E(xc)   XCENC  =        40.39350017
  PAW double counting   =       832.16148451     -834.63726828
  entropy T*S    EENTRO =        -0.00000000
  eigenvalues    EBANDS =      -151.12700477
  atomic energy  EATOM  =       579.51226814
  ---------------------------------------------------
  free energy    TOTEN  =       -14.79595959 eV

  energy without entropy =      -14.79595959  energy(sigma->0) =      -14.79595959


--------------------------------------------------------------------------------------------------------




--------------------------------------- Iteration      1(  16)  ---------------------------------------


    POTLOK:  cpu time      0.0597: real time      0.0600
    SETDIJ:  cpu time      0.0305: real time      0.0305
    TRIAL :  cpu time      0.2295: real time      0.2305
    CORREC:  cpu time      0.2632: real time      0.2642
    EDDIAG:  cpu time      0.1203: real time      0.1209
    CHARGE:  cpu time      0.0771: real time      0.0774
    --------------------------------------------
      LOOP:  cpu time      0.7810: real time      0.7842

 eigenvalue-minimisations  :     0
 total energy-change (2. order) :-0.4636532E-05  (-0.1208483E-05)
 number of electron      10.0000000 magnetization 
 augmentation part        0.6543185 magnetization 

 DIPCOR: dipole corrections for dipol
 direction  3 min pos     1,
 dipolmoment           0.000000      0.000000     -0.028052 electrons x Angstroem
 Tr[quadrupol]      -355.505974

 energy correction for charged system         0.000000 eV
 dipol+quadrupol energy correction           -0.000047 eV
 added-field ion interaction          0.211815 eV  (added to PSCEN)


 Free energy of the ion-electron system (eV)
  ---------------------------------------------------
  alpha Z        PSCENC =         0.49938639
  Ewald energy   TEWEN  =       192.88447950
  -Hartree energ DENC   =      -674.49131789
  -exchange      EXHF   =         0.00000000
  -V(xc)+E(xc)   XCENC  =        40.39390590
  PAW double counting   =       832.10430434     -834.57993307
  entropy T*S    EENTRO =        -0.00000000
  eigenvalues    EBANDS =      -151.11905753
  atomic energy  EATOM  =       579.51226814
  ---------------------------------------------------
  free energy    TOTEN  =       -14.79596422 eV

  energy without entropy =      -14.79596422  energy(sigma->0) =      -14.79596422


--------------------------------------------------------------------------------------------------------


  average scaling for gradient   1.3188


 average (electrostatic) potential at core
  the test charge radii are     0.6991  0.7215
  (the norm of the test charge is              1.0000)
       1 -61.6898       2 -83.4558
 
 
 
 E-fermi :  -8.7035     XC(G=0):  -0.4188     alpha+bet : -0.0940

 Fermi energy:        -8.7034841676

 k-point     1 :       0.0000    0.0000    0.0000
  band No.  band energies     occupation 
      1     -29.1650      2.00000
      2     -14.0198      2.00000
      3     -11.6707      2.00000
      4     -11.6707      2.00000
      5      -9.0310      2.00000
      6      -2.1410      0.00000
      7      -2.1410      0.00000
      8      -0.3090      0.00000
      9       0.2156      0.00000
     10       0.2878      0.00000
     11       1.1093      0.00000
     12       1.2166      0.00000
     13       1.5989      0.00000
     14       1.5989      0.00000
     15       1.6737      0.00000
     16       2.0591      0.00000
     17       2.2800      0.00000
     18       2.3465      0.00000
     19       2.3465      0.00000
     20       2.3777      0.00000
     21       2.3901      0.00000
     22       2.3901      0.00000
     23       2.4226      0.00000
     24       2.4921      0.00000
     25       2.6822      0.00000
     26       2.8588      0.00000
     27       3.2363      0.00000
     28       3.2363      0.00000
     29       3.2525      0.00000
     30       3.2733      0.00000
     31       3.3212      0.00000
     32       3.3368      0.00000
     33       3.3368      0.00000
     34       3.3372      0.00000
     35       3.4464      0.00000
     36       3.8447      0.00000
     37       3.8447      0.00000
     38       4.2267      0.00000
     39       4.4335      0.00000
     40       4.4598      0.00000
     41       4.4628      0.00000
     42       4.4628      0.00000
     43       4.4677      0.00000
     44       4.5057      0.00000
     45       4.5057      0.00000
     46       4.5502      0.00000
     47       4.7526      0.00000
     48       4.8650      0.00000
     49       4.8650      0.00000
     50       4.9500      0.00000
     51       4.9577      0.00000
     52       4.9577      0.00000
     53       4.9720      0.00000
     54       5.0866      0.00000
     55       5.1638      0.00000
     56       5.2119      0.00000
     57       5.3262      0.00000
     58       5.3315      0.00000
     59       5.4195      0.00000
     60       5.4195      0.00000
     61       5.4582      0.00000
     62       5.4722      0.00000
     63       5.4722      0.00000
     64       5.6963      0.00000
     65       6.7249      0.00000
     66       6.7611      0.00000
     67       6.8927      0.00000
     68       6.8927      0.00000
     69       6.9178      0.00000
     70       6.9538      0.00000
     71       7.0302      0.00000
     72       7.0302      0.00000
     73       7.1446      0.00000
     74       7.2399      0.00000
     75       7.2607      0.00000
     76       7.2607      0.00000
     77       7.2667      0.00000
     78       7.2829      0.00000
     79       7.2829      0.00000
     80       7.3360      0.00000
     81       7.3881      0.00000
     82       7.9708      0.00000
     83       7.9708      0.00000
     84       8.0369      0.00000
     85       8.0695      0.00000
     86       8.5002      0.00000
     87       8.5748      0.00000
     88       8.6471      0.00000
     89       8.6565      0.00000
     90       8.6653      0.00000
     91       8.6653      0.00000
     92       8.7118      0.00000
     93       8.7118      0.00000
     94       8.7234      0.00000
     95       8.8415      0.00000
     96       9.1861      0.00000
     97       9.2183      0.00000
     98       9.2183      0.00000
     99       9.2324      0.00000
    100       9.3611      0.00000
    101       9.3635      0.00000
    102       9.3635      0.00000
    103       9.3726      0.00000
    104       9.4483      0.00000
    105       9.4691      0.00000
    106       9.5419      0.00000
    107       9.5753      0.00000
    108       9.5753      0.00000
    109       9.6031      0.00000
    110       9.6031      0.00000
    111       9.7436      0.00000
    112       9.9462      0.00000
    113       9.9462      0.00000
    114      10.0115      0.00000
    115      10.0582      0.00000
    116      10.1090      0.00000
    117      10.1090      0.00000
    118      10.1120      0.00000
    119      10.1942      0.00000
    120      10.1942      0.00000
    121      10.2371      0.00000
    122      10.2455      0.00000
    123      10.2519      0.00000
    124      10.3829      0.00000
    125      10.3829      0.00000
    126      10.6399      0.00000
    127      10.6545      0.00000
    128      10.7478      0.00000
    129      10.7478      0.00000
    130      10.7492      0.00000
    131      10.7628      0.00000
    132      10.7689      0.00000
    133      10.7859      0.00000
    134      10.8086      0.00000
    135      10.8086      0.00000
    136      10.8186      0.00000
    137      10.8270      0.00000
    138      10.8270      0.00000
    139      10.8403      0.00000
    140      10.8629      0.00000
    141      10.8629      0.00000
    142      11.0448      0.00000
    143      11.1089      0.00000
    144      11.1225      0.00000
    145      11.1280      0.00000
    146      11.2338      0.00000
    147      11.2338      0.00000
    148      11.3254      0.00000
    149      11.3254      0.00000
    150      11.5203      0.00000
    151      11.5314      0.00000
    152      11.5373      0.00000

 k-point     2 :       0.5000    0.0000    0.0000
  band No.  band energies     occupation 
      1     -29.1650      2.00000
      2     -14.0198      2.00000
      3     -11.6708      2.00000
      4     -11.6707      2.00000
      5      -9.0308      2.00000
      6      -2.1526      0.00000
      7      -2.1400      0.00000
      8       0.1413      0.00000
      9       0.2977      0.00000
     10       0.6469      0.00000
     11       0.8069      0.00000
     12       0.8163      0.00000
     13       0.8680      0.00000
     14       1.5612      0.00000
     15       1.6871      0.00000
     16       1.7695      0.00000
     17       1.8121      0.00000
     18       1.9152      0.00000
     19       2.2433      0.00000
     20       2.4090      0.00000
     21       2.4427      0.00000
     22       2.7909      0.00000
     23       2.8015      0.00000
     24       2.9009      0.00000
     25       2.9070      0.00000
     26       2.9293      0.00000
     27       2.9331      0.00000
     28       2.9642      0.00000
     29       2.9698      0.00000
     30       3.0904      0.00000
     31       3.3402      0.00000
     32       3.4042      0.00000
     33       3.4509      0.00000
     34       3.6968      0.00000
     35       3.7435      0.00000
     36       3.7862      0.00000
     37       3.8222      0.00000
     38       3.8501      0.00000
     39       3.8815      0.00000
     40       3.9051      0.00000
     41       3.9311      0.00000
     42       4.3122      0.00000
     43       4.5541      0.00000
     44       4.9485      0.00000
     45       4.9842      0.00000
     46       5.0090      0.00000
     47       5.0304      0.00000
     48       5.1192      0.00000
     49       5.2967      0.00000
     50       5.4023      0.00000
     51       5.4174      0.00000
     52       5.4765      0.00000
     53       5.5109      0.00000
     54       5.5230      0.00000
     55       5.5499      0.00000
     56       5.6012      0.00000
     57       5.6374      0.00000
     58       5.7474      0.00000
     59       5.7679      0.00000
     60       5.8714      0.00000
     61       5.8812      0.00000
     62       5.9181      0.00000
     63       5.9623      0.00000
     64       5.9985      0.00000
     65       6.3121      0.00000
     66       6.5500      0.00000
     67       6.6987      0.00000
     68       7.0493      0.00000
     69       7.0569      0.00000
     70       7.0890      0.00000
     71       7.1019      0.00000
     72       7.1062      0.00000
     73       7.1115      0.00000
     74       7.1224      0.00000
     75       7.1564      0.00000
     76       7.3142      0.00000
     77       7.4940      0.00000
     78       7.5007      0.00000
     79       7.5008      0.00000
     80       7.5486      0.00000
     81       7.6202      0.00000
     82       7.6732      0.00000
     83       7.7544      0.00000
     84       7.7653      0.00000
     85       7.8338      0.00000
     86       7.8677      0.00000
     87       7.8822      0.00000
     88       7.9933      0.00000
     89       7.9943      0.00000
     90       8.0136      0.00000
     91       8.0152      0.00000
     92       8.0285      0.00000
     93       8.0309      0.00000
     94       8.0656      0.00000
     95       8.1540      0.00000
     96       8.4259      0.00000
     97       8.4545      0.00000
     98       8.5110      0.00000
     99       8.5952      0.00000
    100       8.6492      0.00000
    101       8.7012      0.00000
    102       8.7318      0.00000
    103       8.9546      0.00000
    104       9.0715      0.00000
    105       9.0888      0.00000
    106       9.2270      0.00000
    107       9.2301      0.00000
    108       9.2383      0.00000
    109       9.2523      0.00000
    110       9.2836      0.00000
    111       9.2987      0.00000
    112       9.5383      0.00000
    113       9.5657      0.00000
    114       9.5847      0.00000
    115       9.5851      0.00000
    116       9.6519      0.00000
    117       9.7095      0.00000
    118       9.7478      0.00000
    119       9.8006      0.00000
    120       9.8435      0.00000
    121       9.8897      0.00000
    122       9.9242      0.00000
    123       9.9313      0.00000
    124       9.9726      0.00000
    125      10.0292      0.00000
    126      10.1848      0.00000
    127      10.1997      0.00000
    128      10.2162      0.00000
    129      10.2229      0.00000
    130      10.2254      0.00000
    131      10.2273      0.00000
    132      10.4358      0.00000
    133      10.4859      0.00000
    134      10.6525      0.00000
    135      10.7613      0.00000
    136      10.7968      0.00000
    137      10.8021      0.00000
    138      10.8284      0.00000
    139      10.9391      0.00000
    140      11.3757      0.00000
    141      11.4250      0.00000
    142      11.4671      0.00000
    143      11.6695      0.00000
    144      11.7498      0.00000
    145      11.7507      0.00000
    146      11.7528      0.00000
    147      11.7822      0.00000
    148      11.8504      0.00000
    149      11.8699      0.00000
    150      11.9375      0.00000
    151      11.9408      0.00000
    152      11.9521      0.00000

 k-point     3 :       0.5000    0.5000    0.0000
  band No.  band energies     occupation 
      1     -29.1650      2.00000
      2     -14.0198      2.00000
      3     -11.6708      2.00000
      4     -11.6708      2.00000
      5      -9.0307      2.00000
      6      -2.1507      0.00000
      7      -2.1507      0.00000
      8       0.6412      0.00000
      9       0.6791      0.00000
     10       0.6791      0.00000
     11       0.9339      0.00000
     12       1.0548      0.00000
     13       1.3236      0.00000
     14       1.3236      0.00000
     15       1.3413      0.00000
     16       1.3585      0.00000
     17       1.3585      0.00000
     18       1.3639      0.00000
     19       1.4272      0.00000
     20       2.0075      0.00000
     21       2.1991      0.00000
     22       2.2456      0.00000
     23       2.2456      0.00000
     24       2.3061      0.00000
     25       2.3061      0.00000
     26       2.3522      0.00000
     27       2.3729      0.00000
     28       3.4514      0.00000
     29       3.8130      0.00000
     30       3.8666      0.00000
     31       3.8666      0.00000
     32       3.8677      0.00000
     33       3.9313      0.00000
     34       3.9313      0.00000
     35       3.9752      0.00000
     36       4.0142      0.00000
     37       4.5017      0.00000
     38       4.6784      0.00000
     39       4.6784      0.00000
     40       5.0205      0.00000
     41       5.0205      0.00000
     42       5.1584      0.00000
     43       5.3235      0.00000
     44       5.3528      0.00000
     45       5.3804      0.00000
     46       5.4157      0.00000
     47       5.4157      0.00000
     48       5.5021      0.00000
     49       5.5180      0.00000
     50       5.5385      0.00000
     51       5.5477      0.00000
     52       5.5477      0.00000
     53       5.5686      0.00000
     54       5.5686      0.00000
     55       5.5889      0.00000
     56       5.6158      0.00000
     57       5.6158      0.00000
     58       5.6283      0.00000
     59       5.6442      0.00000
     60       5.9257      0.00000
     61       6.1212      0.00000
     62       6.1212      0.00000
     63       6.1321      0.00000
     64       6.2258      0.00000
     65       6.2258      0.00000
     66       6.2798      0.00000
     67       6.2871      0.00000
     68       6.2998      0.00000
     69       6.3167      0.00000
     70       6.3862      0.00000
     71       6.3862      0.00000
     72       6.4231      0.00000
     73       6.4444      0.00000
     74       6.4761      0.00000
     75       6.4968      0.00000
     76       6.4968      0.00000
     77       6.5444      0.00000
     78       6.5444      0.00000
     79       6.5558      0.00000
     80       6.5558      0.00000
     81       6.5813      0.00000
     82       6.5907      0.00000
     83       7.0640      0.00000
     84       7.8725      0.00000
     85       7.8924      0.00000
     86       7.9146      0.00000
     87       7.9159      0.00000
     88       7.9430      0.00000
     89       7.9430      0.00000
     90       8.0411      0.00000
     91       8.0842      0.00000
     92       8.0842      0.00000
     93       8.1803      0.00000
     94       8.1803      0.00000
     95       8.1887      0.00000
     96       8.1919      0.00000
     97       8.1919      0.00000
     98       8.2331      0.00000
     99       8.2358      0.00000
    100       8.5105      0.00000
    101       8.6761      0.00000
    102       8.9681      0.00000
    103       8.9681      0.00000
    104       9.0798      0.00000
    105       9.1484      0.00000
    106       9.1484      0.00000
    107       9.2165      0.00000
    108       9.2165      0.00000
    109       9.3006      0.00000
    110       9.3034      0.00000
    111       9.5885      0.00000
    112       9.6681      0.00000
    113       9.7225      0.00000
    114       9.7402      0.00000
    115       9.7402      0.00000
    116       9.7436      0.00000
    117       9.7726      0.00000
    118       9.7726      0.00000
    119       9.9047      0.00000
    120      10.1261      0.00000
    121      10.1992      0.00000
    122      10.1998      0.00000
    123      10.1998      0.00000
    124      10.2145      0.00000
    125      10.2875      0.00000
    126      10.2980      0.00000
    127      10.3936      0.00000
    128      10.3936      0.00000
    129      10.4778      0.00000
    130      10.4778      0.00000
    131      10.4858      0.00000
    132      10.4858      0.00000
    133      10.5451      0.00000
    134      10.5484      0.00000
    135      10.6068      0.00000
    136      10.6406      0.00000
    137      10.6497      0.00000
    138      10.6665      0.00000
    139      10.6780      0.00000
    140      10.6780      0.00000
    141      10.7415      0.00000
    142      10.7415      0.00000
    143      10.9712      0.00000
    144      11.1886      0.00000
    145      11.8057      0.00000
    146      12.0800      0.00000
    147      12.1631      0.00000
    148      12.1878      0.00000
    149      12.1878      0.00000
    150      12.2841      0.00000
    151      12.3132      0.00000
    152      12.3293      0.00000


--------------------------------------------------------------------------------------------------------


 soft charge-density along one line, spin component           1
         0         1         2         3         4         5         6         7         8         9
 total charge-density along one line
 
 pseudopotential strength for first ion, spin component:           1
 10.416  13.857  -0.000   0.033  -0.000   0.000  -0.099   0.000
 13.857  18.433  -0.000   0.044  -0.000   0.000  -0.131   0.000
 -0.000  -0.000  -4.535   0.000  -0.000   8.883  -0.000   0.000
  0.033   0.044   0.000  -4.571   0.000  -0.000   8.936  -0.000
 -0.000  -0.000  -0.000   0.000  -4.535   0.000  -0.000   8.883
  0.000   0.000   8.883  -0.000   0.000 -19.547   0.000  -0.000
 -0.099  -0.131  -0.000   8.936  -0.000   0.000 -19.617   0.000
  0.000   0.000   0.000  -0.000   8.883  -0.000   0.000 -19.547
 total augmentation occupancy for first ion, spin component:           1
  7.157  -3.232   0.000   2.085   0.000   0.000   0.378   0.000
 -3.232   1.864   0.000  -1.596  -0.000   0.000  -0.228   0.000
  0.000   0.000   0.815   0.000   0.000   0.059   0.000   0.000
  2.085  -1.596   0.000   2.210  -0.000   0.000   0.206  -0.000
  0.000  -0.000   0.000  -0.000   0.815   0.000  -0.000   0.059
  0.000   0.000   0.059   0.000   0.000   0.004   0.000   0.000
  0.378  -0.228   0.000   0.206  -0.000   0.000   0.028   0.000
  0.000   0.000   0.000  -0.000   0.059   0.000   0.000   0.004


------------------------ aborting loop because EDIFF is reached ----------------------------------------


    FORLOC:  cpu time      0.0004: real time      0.0004
    FORNL :  cpu time      0.0053: real time      0.0053
    STRESS:  cpu time      0.1594: real time      0.1602
    FORCOR:  cpu time      0.0491: real time      0.0493
    OFIELD:  cpu time      0.0001: real time      0.0001

  DFT-D2 method for vdW energy calculation
  -------------------------------------------------------------------

  Parameters of vdW forcefield:
         C6(Jnm^6/mol)     R0(A)
   -----------------------------
   C        1.750          1.452
   O        0.700          1.342

  vdW correction parametrized for the method pbe       

  IVDW =   1
  VDW_RADIUS =    50.000 A
  VDW_S6 =     0.750
  VDW_SR =     1.000
  VDW_D =    20.000
  LVDW_EWALD = F

  Number of pair interactions contributing to vdW energy:    1045
  Edisp (eV):   -0.00026
    FORVDW:  cpu time      0.0003: real time      0.0003

  FORCE on cell =-STRESS in cart. coord.  units (eV):
  Direction    XX          YY          ZZ          XY          YZ          ZX
  --------------------------------------------------------------------------------------
  Alpha Z     0.28751     0.28751     0.28751
  Ewald      56.20538    56.20538    80.47363     0.00000     0.00000     0.00000
  Hartree   279.84919   279.84919   114.80117    -0.00000    -0.00000    -0.00000
  E(xc)     -43.96873   -43.96873   -42.86303    -0.00000     0.00000    -0.00000
  Local    -471.01242  -471.01242  -304.38850     0.00000     0.00000    -0.00000
  n-local   -18.18775   -18.18790   -29.57529     0.00000    -0.00000     0.00000
  augment     6.23239     6.23239     5.76704     0.00000    -0.00000     0.00000
  Kinetic   190.53500   190.53476   174.93079     0.00000     0.00000    -0.00000
  Fock        0.00000     0.00000     0.00000     0.00000     0.00000     0.00000
  vdW        -0.00068    -0.00068     0.00004     0.00000     0.00000    -0.00000
  -------------------------------------------------------------------------------------
  Total      -0.06032    -0.06032    -0.56665     0.00000     0.00000    -0.00000
  in kB      -0.06358    -0.06358    -0.59736     0.00000     0.00000    -0.00000
  external pressure =       -0.24 kB  Pullay stress =        0.00 kB


 VOLUME and BASIS-vectors are now :
 -----------------------------------------------------------------------------
  energy-cutoff  :      600.00
  volume of cell :     1519.82
      direct lattice vectors                 reciprocal lattice vectors
     8.440984654  0.000000000  0.000000000     0.118469591  0.000000000  0.000000000
     0.000000000  8.440984654  0.000000000     0.000000000  0.118469591  0.000000000
     0.000000000  0.000000000 21.330738491     0.000000000  0.000000000  0.046880702

  length of vectors
     8.440984654  8.440984654 21.330738491     0.118469591  0.118469591  0.046880702


 FORCES acting on ions:
    Electron-Ion                     Ewald-Force                    Non-Local-Force
 -----------------------------------------------------------------------------------------------
   0.845E-13 0.100E-11 0.238E+03   -.956E-16 0.260E-16 -.265E+03   0.243E-23 -.494E-23 0.281E+02
   0.357E-12 0.869E-12 -.207E+03   0.214E-15 -.398E-17 0.265E+03   0.503E-23 -.187E-24 -.591E+02
 -----------------------------------------------------------------------------------------------
   0.442E-12 0.187E-11 0.310E+02   0.118E-15 0.220E-16 0.000E+00   0.745E-23 -.512E-23 -.310E+02
 
 
 POSITION                                       TOTAL-FORCE (eV/Angst)
 -----------------------------------------------------------------------------------
      4.22049      4.22049     16.31916         0.000000      0.000000      0.432435
      4.22049      4.22049     17.46598        -0.000000     -0.000000     -0.432435
 -----------------------------------------------------------------------------------
    total drift:                                0.000000      0.000000     -0.000669


--------------------------------------------------------------------------------------------------------



  FREE ENERGIE OF THE ION-ELECTRON SYSTEM (eV)
  ---------------------------------------------------
  free  energy   TOTEN  =       -14.79622472 eV

  energy  without entropy=      -14.79622472  energy(sigma->0) =      -14.79622472
 


--------------------------------------------------------------------------------------------------------


    POTLOK:  cpu time      0.0893: real time      0.0896


--------------------------------------------------------------------------------------------------------


     LOOP+:  cpu time     13.6411: real time     13.7013
    4ORBIT:  cpu time      0.0000: real time      0.0000

 total amount of memory used by VASP MPI-rank0    79451. kBytes
=======================================================================

   base      :      30000. kBytes
   nonl-proj :      10622. kBytes
   fftplans  :      14615. kBytes
   grid      :      20512. kBytes
   one-center:          3. kBytes
   wavefun   :       3699. kBytes
 
  
  
 General timing and accounting informations for this job:
 ========================================================
  
                  Total CPU time used (sec):       15.443
                            User time (sec):       15.195
                          System time (sec):        0.248
                         Elapsed time (sec):       16.162
  
                   Maximum memory used (kb):      301412.
                   Average memory used (kb):          N/A
  
                          Minor page faults:        36884
                          Major page faults:          109
                 Voluntary context switches:         1816
