 vasp.6.3.0 20Jan22 (build Apr  1 2022 16:44:48) gamma-only
 executed on        HPECrayEX_GCC date 2023.01.23  22:19:11
 running  512 mpi-ranks, with    1 threads/rank
 distrk:  each k-point on  512 cores,    1 groups
 distr:  one band on NCORE=   8 cores,   64 groups


--------------------------------------------------------------------------------------------------------


 INCAR:
   SYSTEM = MgO-rocksalt
   ISMEAR = 0
   SIGMA = 0.05
   EDIFF = 1E-8
   ALGO = ALL
   ISTART = 0
   IBRION = 5
   POTIM = 0.01
   NFREE = 2
   ISYM = 0
   DIPOL = 0.5 0.5 0.5
   IDIPOL = 4
   LDIPOL = .TRUE.
   GGA = RE
   AGGAC = 0.0
   LUSE_VDW = .TRUE.
   LASPH = .TRUE.
   ENCUT = 600
   PREC = Accurate
   LASPH = .TRUE.
   LREAL = .FALSE.
   ISPIN = 1
   NELM = 200
   NELMIN = 8
   NCORE = 8
   KPAR = 1
   LWAVE = .FALSE.
   LCHARG = .FALSE.

 POTCAR:    PAW_PBE C 08Apr2002
 POTCAR:    PAW_PBE O 08Apr2002
 -----------------------------------------------------------------------------
|                                                                             |
|               ----> ADVICE to this user running VASP <----                  |
|                                                                             |
|     You have switched on vdW-DFT.                                           |
|     This routine was written and supplied by Jiri Klimes. We recommend      |
|     that you carefully read and cite the following publications:            |
|       J. Klimes, D.R. Bowler, A. Michelides                                 |
|          J. Phys.: Cond Matt. 22 022201 (2010)                              |
|       J. Klimes, D.R. Bowler, A. Michelides                                 |
|          Phys. Rev. B. 83, 195131 (2011)                                    |
|     and references therein.                                                 |
|                                                                             |
 -----------------------------------------------------------------------------

 POTCAR:    PAW_PBE C 08Apr2002
   SHA256 =  253f7b50bb8d59471dbedb8285d89021f4a42ed1a2c5d38a03a736e69125dd95 C/POTCAR
   COPYR  = (c) Copyright 08Apr2002 Georg Kresse
   COPYR  = This file is part of the software VASP. Any use, copying, and all other rights are regul
   COPYR  = If you do not have a valid VASP license, you may not use, copy or distribute this file.
   VRHFIN =C: s2p2
   LEXCH  = PE
   EATOM  =   147.1560 eV,   10.8157 Ry

   TITEL  = PAW_PBE C 08Apr2002
   LULTRA =        F    use ultrasoft PP ?
   IUNSCR =        1    unscreen: 0-lin 1-nonlin 2-no
   RPACOR =    1.200    partial core radius
   POMASS =   12.011; ZVAL   =    4.000    mass and valenz
   RCORE  =    1.500    outmost cutoff radius
   RWIGS  =    1.630; RWIGS  =    0.863    wigner-seitz radius (au A)
   ENMAX  =  400.000; ENMIN  =  300.000 eV
   ICORE  =        2    local potential
   LCOR   =        T    correct aug charges
   LPAW   =        T    paw PP
   EAUG   =  644.873
   DEXC   =    0.000
   RMAX   =    1.529    core radius for proj-oper
   RAUG   =    1.300    factor for augmentation sphere
   RDEP   =    1.501    radius for radial grids
   RDEPT  =    1.300    core radius for aug-charge

   Atomic configuration
    4 entries
     n  l   j            E        occ.
     1  0  0.50      -273.3789   2.0000
     2  0  0.50       -13.7508   2.0000
     2  1  0.50        -5.2854   2.0000
     3  2  1.50        -5.4423   0.0000
   Description
     l       E           TYP  RCUT    TYP  RCUT
     0    -13.7508458     23  1.200
     0     -8.2022199     23  1.200
     1     -5.2854383     23  1.500
     1     34.0145650     23  1.500
     2     -5.4423304      7  1.500
  local pseudopotential read in
  partial core-charges read in
  partial kinetic energy density read in
  atomic valenz-charges read in
  non local Contribution for L=           0  read in
    real space projection operators read in
  non local Contribution for L=           0  read in
    real space projection operators read in
  non local Contribution for L=           1  read in
    real space projection operators read in
  non local Contribution for L=           1  read in
    real space projection operators read in
    PAW grid and wavefunctions read in

   number of l-projection  operators is LMAX  =           4
   number of lm-projection operators is LMMAX =           8

 POTCAR:    PAW_PBE O 08Apr2002
   SHA256 =  818f92134a0a090dccd8ba1447fa70422a3b330e708bb4f08108d8ae51209ddf O/POTCAR
   COPYR  = (c) Copyright 08Apr2002 Georg Kresse
   COPYR  = This file is part of the software VASP. Any use, copying, and all other rights are regul
   COPYR  = If you do not have a valid VASP license, you may not use, copy or distribute this file.
   VRHFIN =O: s2p4
   LEXCH  = PE
   EATOM  =   432.3788 eV,   31.7789 Ry

   TITEL  = PAW_PBE O 08Apr2002
   LULTRA =        F    use ultrasoft PP ?
   IUNSCR =        1    unscreen: 0-lin 1-nonlin 2-no
   RPACOR =    1.200    partial core radius
   POMASS =   16.000; ZVAL   =    6.000    mass and valenz
   RCORE  =    1.520    outmost cutoff radius
   RWIGS  =    1.550; RWIGS  =    0.820    wigner-seitz radius (au A)
   ENMAX  =  400.000; ENMIN  =  300.000 eV
   ICORE  =        2    local potential
   LCOR   =        T    correct aug charges
   LPAW   =        T    paw PP
   EAUG   =  605.392
   DEXC   =    0.000
   RMAX   =    1.553    core radius for proj-oper
   RAUG   =    1.300    factor for augmentation sphere
   RDEP   =    1.550    radius for radial grids
   RDEPT  =    1.329    core radius for aug-charge

   Atomic configuration
    4 entries
     n  l   j            E        occ.
     1  0  0.50      -514.6923   2.0000
     2  0  0.50       -23.9615   2.0000
     2  1  0.50        -9.0305   4.0000
     3  2  1.50        -9.5241   0.0000
   Description
     l       E           TYP  RCUT    TYP  RCUT
     0    -23.9615318     23  1.200
     0     -9.5240782     23  1.200
     1     -9.0304911     23  1.520
     1      8.1634956     23  1.520
     2     -9.5240782      7  1.500
  local pseudopotential read in
  partial core-charges read in
  partial kinetic energy density read in
  kinetic energy density of atom read in
  atomic valenz-charges read in
  non local Contribution for L=           0  read in
    real space projection operators read in
  non local Contribution for L=           0  read in
    real space projection operators read in
  non local Contribution for L=           1  read in
    real space projection operators read in
  non local Contribution for L=           1  read in
    real space projection operators read in
    PAW grid and wavefunctions read in

   number of l-projection  operators is LMAX  =           4
   number of lm-projection operators is LMMAX =           8

 -----------------------------------------------------------------------------
|                                                                             |
|               ----> ADVICE to this user running VASP <----                  |
|                                                                             |
|     You enforced a specific xc type in the INCAR file but a different       |
|     type was found in the POTCAR file.                                      |
|     I HOPE YOU KNOW WHAT YOU ARE DOING!                                     |
|                                                                             |
 -----------------------------------------------------------------------------

  PAW_PBE C 08Apr2002                   :
 energy of atom  1       EATOM= -147.1560
 kinetic energy error for atom=    0.0057 (will be added to EATOM!!)
  PAW_PBE O 08Apr2002                   :
 energy of atom  2       EATOM= -432.3788
 kinetic energy error for atom=    0.0168 (will be added to EATOM!!)


 POSCAR:  C  O
  positions in direct lattice
  No initial velocities read in
 exchange correlation table for  LEXCH =       40
   RHO(1)=    0.500       N(1)  =     2000
   RHO(2)=  100.500       N(2)  =     4000



--------------------------------------------------------------------------------------------------------


 ion  position               nearest neighbor table
   1  0.500  0.500  0.473-   2 1.14
   2  0.500  0.500  0.527-   1 1.14


IMPORTANT INFORMATION: All symmetrisations will be switched off!
NOSYMM: (Re-)initialisation of all symmetry stuff for point group C_1.


----------------------------------------------------------------------------------------

                                     Primitive cell

  volume of cell :    8450.5313

  direct lattice vectors                    reciprocal lattice vectors
    20.000000000  0.000000000  0.000000000     0.050000000  0.000000000  0.000000000
     0.000000000 20.000000000  0.000000000     0.000000000  0.050000000  0.000000000
     0.000000000  0.000000000 21.126328287     0.000000000  0.000000000  0.047334302

  length of vectors
    20.000000000 20.000000000 21.126328287     0.050000000  0.050000000  0.047334302

  position of ions in fractional coordinates (direct lattice)
     0.500000000  0.500000000  0.472916008
     0.500000000  0.500000000  0.527083992

  ion indices of the primitive-cell ions
   primitive index   ion index
                 1           1
                 2           2

----------------------------------------------------------------------------------------



 KPOINTS: pymatgen v2020.8.13 with grid density =

Automatic generation of k-mesh.
 Grid dimensions read from file:
 generate k-points for:    1    1    1

 Generating k-lattice:

  Cartesian coordinates                     Fractional coordinates (reciprocal lattice)
     0.050000000  0.000000000  0.000000000     1.000000000  0.000000000  0.000000000
     0.000000000  0.050000000  0.000000000     0.000000000  1.000000000  0.000000000
     0.000000000  0.000000000  0.047334302     0.000000000  0.000000000  1.000000000

  Length of vectors
     0.050000000  0.050000000  0.047334302

  Shift w.r.t. Gamma in fractional coordinates (k-lattice)
     0.000000000  0.000000000  0.000000000


 Subroutine IBZKPT returns following result:
 ===========================================

 Found      1 irreducible k-points:

 Following reciprocal coordinates:
            Coordinates               Weight
  0.000000  0.000000  0.000000      1.000000

 Following cartesian coordinates:
            Coordinates               Weight
  0.000000  0.000000  0.000000      1.000000


 Subroutine IBZKPT_HF returns following result:
 ==============================================

 Found      1 k-points in 1st BZ
 the following      1 k-points will be used (e.g. in the exchange kernel)
 Following reciprocal coordinates:   # in IRBZ
  0.000000  0.000000  0.000000    1.00000000   1 t-inv F


--------------------------------------------------------------------------------------------------------




 Dimension of arrays:
   k-points           NKPTS =      1   k-points in BZ     NKDIM =      1   number of bands    NBANDS=     64
   number of dos      NEDOS =    301   number of ions     NIONS =      2
   non local maximal  LDIM  =      4   non local SUM 2l+1 LMDIM =      8
   total plane-waves  NPLWV = ******
   max r-space proj   IRMAX =      1   max aug-charges    IRDMAX=   7273
   dimension x,y,z NGX =   160 NGY =  160 NGZ =  180
   dimension x,y,z NGXF=   320 NGYF=  320 NGZF=  360
   support grid    NGXF=   320 NGYF=  320 NGZF=  360
   ions per type =               1   1
   NGX,Y,Z   is equivalent  to a cutoff of  13.30, 13.30, 14.16 a.u.
   NGXF,Y,Z  is equivalent  to a cutoff of  26.60, 26.60, 28.33 a.u.

 SYSTEM =  MgO-rocksalt
 POSCAR =   C  O

 Startparameter for this run:
   NWRITE =      2    write-flag & timer
   PREC   = accura    normal or accurate (medium, high low for compatibility)
   ISTART =      0    job   : 0-new  1-cont  2-samecut
   ICHARG =      2    charge: 1-file 2-atom 10-const
   ISPIN  =      1    spin polarized calculation?
   LNONCOLLINEAR =      F non collinear calculations
   LSORBIT =      F    spin-orbit coupling
   INIWAV =      1    electr: 0-lowe 1-rand  2-diag
   LASPH  =      T    aspherical Exc in radial PAW
 Electronic Relaxation 1
   ENCUT  =  600.0 eV  44.10 Ry    6.64 a.u.  39.94 39.94 42.19*2*pi/ulx,y,z
   ENINI  =  600.0     initial cutoff
   ENAUG  =  644.9 eV  augmentation charge cutoff
   NELM   =    200;   NELMIN=  8; NELMDL= -5     # of ELM steps
   EDIFF  = 0.1E-07   stopping-criterion for ELM
   LREAL  =      F    real-space projection
   NLSPLINE    = F    spline interpolate recip. space projectors
   LCOMPAT=      F    compatible to vasp.4.4
   GGA_COMPAT  = T    GGA compatible to vasp.4.4-vasp.4.6
   LMAXPAW     = -100 max onsite density
   LMAXMIX     =    2 max onsite mixed and CHGCAR
   VOSKOWN=      0    Vosko Wilk Nusair interpolation
   ROPT   =    0.00000   0.00000
 Ionic relaxation
   EDIFFG = 0.1E-06   stopping-criterion for IOM
   NSW    =     61    number of steps for IOM
   NBLOCK =      1;   KBLOCK =     61    inner block; outer block
   IBRION =      5    ionic relax: 0-MD 1-quasi-New 2-CG
   NFREE  =      2    steps in history (QN), initial steepest desc. (CG)
   ISIF   =      2    stress and relaxation
   IWAVPR =     11    prediction:  0-non 1-charg 2-wave 3-comb
   ISYM   =      0    0-nonsym 1-usesym 2-fastsym
   LCORR  =      T    Harris-Foulkes like correction to forces

   POTIM  = 0.0100    time-step for ionic-motion
   TEIN   =    0.0    initial temperature
   TEBEG  =    0.0;   TEEND  =   0.0 temperature during run
   SMASS  =  -3.00    Nose mass-parameter (am)
   estimated Nose-frequenzy (Omega)   =  0.10E-29 period in steps = 0.63E+48 mass=  -0.914E-26a.u.
   SCALEE = 1.0000    scale energy and forces
   NPACO  =    256;   APACO  = 10.0  distance and # of slots for P.C.
   PSTRESS=    0.0 pullay stress

  Mass of Ions in am
   POMASS =  12.01 16.00
  Ionic Valenz
   ZVAL   =   4.00  6.00
  Atomic Wigner-Seitz radii
   RWIGS  =  -1.00 -1.00
  virtual crystal weights
   VCA    =   1.00  1.00
   NELECT =      10.0000    total number of electrons
   NUPDOWN=      -1.0000    fix difference up-down

 DOS related values:
   EMIN   =  10.00;   EMAX   =-10.00  energy-range for DOS
   EFERMI =   0.00
   ISMEAR =     0;   SIGMA  =   0.05  broadening in eV -4-tet -1-fermi 0-gaus

 Electronic relaxation 2 (details)
   IALGO  =     58    algorithm
   LDIAG  =      T    sub-space diagonalisation (order eigenvalues)
   LSUBROT=      F    optimize rotation matrix (better conditioning)
   TURBO    =      0    0=normal 1=particle mesh
   IRESTART =      0    0=no restart 2=restart with 2 vectors
   NREBOOT  =      0    no. of reboots
   NMIN     =      0    reboot dimension
   EREF     =   0.00    reference energy to select bands
   IMIX   =      4    mixing-type and parameters
     AMIX     =   0.40;   BMIX     =  1.00
     AMIX_MAG =   1.60;   BMIX_MAG =  1.00
     AMIN     =   0.10
     WC   =   100.;   INIMIX=   1;  MIXPRE=   1;  MAXMIX= -45

 Intra band minimization:
   WEIMIN = 0.0010     energy-eigenvalue tresh-hold
   EBREAK =  0.39E-10  absolut break condition
   DEPER  =   0.30     relativ break condition

   TIME   =   0.40     timestep for ELM

  volume/ion in A,a.u.               =    4225.27     28513.50
  Fermi-wavevector in a.u.,A,eV,Ry     =   0.173160  0.327224  0.407961  0.029984
  Thomas-Fermi vector in A             =   0.887314

 Write flags
   LWAVE        =      F    write WAVECAR
   LDOWNSAMPLE  =      F    k-point downsampling of WAVECAR
   LCHARG       =      F    write CHGCAR
   LVTOT        =      F    write LOCPOT, total local potential
   LVHAR        =      F    write LOCPOT, Hartree potential only
   LELF         =      F    write electronic localiz. function (ELF)
   LORBIT       =      0    0 simple, 1 ext, 2 COOP (PROOUT), +10 PAW based schemes


 Dipole corrections
   LMONO  =      F    monopole corrections only (constant potential shift)
   LDIPOL =      T    correct potential (dipole corrections)
   IDIPOL =      4    1-x, 2-y, 3-z, 4-all directions
   EPSILON=  1.0000000 bulk dielectric constant

 Exchange correlation treatment:
   GGA     =    RE    GGA type
   LEXCH   =    40    internal setting for exchange type
   LIBXC   =     F    Libxc
   VOSKOWN =     0    Vosko Wilk Nusair interpolation
   LHFCALC =     F    Hartree Fock is set to
   LHFONE  =     F    Hartree Fock one center treatment
   AEXX    =    0.0000 exact exchange contribution

 vdW DFT:
   LUSE_VDW   =     T    switch on vdW DFT
   Zab_VDW    =-.8491    correlation parameter
   PARAM1     =0.1234
   PARAM2     =1.0000
   PARAM3     =0.0000
   -- rVV10 --
   BPARAM     = 6.3000
   CPARAM     = 0.0093

 Linear response parameters
   LEPSILON=     F    determine dielectric tensor
   LRPA    =     F    only Hartree local field effects (RPA)
   LNABLA  =     F    use nabla operator in PAW spheres
   LVEL    =     F    velocity operator in full k-point grid
   CSHIFT  =0.1000    complex shift for real part using Kramers Kronig
   OMEGAMAX=  -1.0    maximum frequency
   DEG_THRESHOLD= 0.2000000E-02 threshold for treating states as degnerate
   RTIME   =   -0.100 relaxation time in fs
  (WPLASMAI=    0.000 imaginary part of plasma frequency in eV, 0.658/RTIME)
   DFIELD  = 0.0000000 0.0000000 0.0000000 field for delta impulse in time

  Optional k-point grid parameters
   LKPOINTS_OPT  =     F    use optional k-point grid
   KPOINTS_OPT_MODE=     1    mode for optional k-point grid

 Orbital magnetization related:
   ORBITALMAG=     F  switch on orbital magnetization
   LCHIMAG   =     F  perturbation theory with respect to B field
   DQ        =  0.001000  dq finite difference perturbation B field
   LLRAUG    =     F  two centre corrections for induced B field



--------------------------------------------------------------------------------------------------------


 finite differences
 charge density and potential will be updated during run
 non-spin polarized calculation
 Conjugate gradient for all bands (Freysoldt, et al. PRB 79, 241103 (2009))
 preconditioned conjugated gradient
 perform sub-space diagonalisation
    before iterative eigenvector-optimisation
 modified Broyden-mixing scheme, WC =      100.0
 initial mixing is a Kerker type mixing with AMIX =  0.4000 and BMIX =      1.0000
 Hartree-type preconditioning will be used
 using additional bands           59
 reciprocal scheme for non local part
 use partial core corrections
 no Harris-corrections to forces
 use gradient corrections
 use of overlap-Matrix (Vanderbilt PP)
 Gauss-broadening in eV      SIGMA  =   0.05


--------------------------------------------------------------------------------------------------------


  energy-cutoff  :      600.00
  volume of cell :     8450.53
      direct lattice vectors                 reciprocal lattice vectors
    20.000000000  0.000000000  0.000000000     0.050000000  0.000000000  0.000000000
     0.000000000 20.000000000  0.000000000     0.000000000  0.050000000  0.000000000
     0.000000000  0.000000000 21.126328287     0.000000000  0.000000000  0.047334302

  length of vectors
    20.000000000 20.000000000 21.126328287     0.050000000  0.050000000  0.047334302



 k-points in units of 2pi/SCALE and weight: pymatgen v2020.8.13 with grid density =
   0.00000000  0.00000000  0.00000000       1.000

 k-points in reciprocal lattice and weights: pymatgen v2020.8.13 with grid density =
   0.00000000  0.00000000  0.00000000       1.000

 position of ions in fractional coordinates (direct lattice)
   0.50000000  0.50000000  0.47291601
   0.50000000  0.50000000  0.52708399

 position of ions in cartesian coordinates  (Angst):
  10.00000000 10.00000000  9.99097884
  10.00000000 10.00000000 11.13534944



--------------------------------------------------------------------------------------------------------


 use parallel FFT for orbitals z direction half grid
 k-point   1 :   0.0000 0.0000 0.0000  plane waves:  140949

 maximum and minimum number of plane-waves per node :     17623    17611

 maximum number of plane-waves:    140949
 maximum index in each direction:
   IXMAX=   39   IYMAX=   39   IZMAX=   42
   IXMIN=  -39   IYMIN=  -39   IZMIN=    0


 parallel 3D FFT for wavefunctions:
    minimum data exchange during FFTs selected (reduces bandwidth)
 parallel 3D FFT for charge:
    minimum data exchange during FFTs selected (reduces bandwidth)


 total amount of memory used by VASP MPI-rank0    79043. kBytes
=======================================================================

   base      :      30000. kBytes
   nonl-proj :       2826. kBytes
   fftplans  :      15799. kBytes
   grid      :      29568. kBytes
   one-center:          1. kBytes
   wavefun   :        849. kBytes

     INWAV:  cpu time      0.0000: real time      0.0000
 Broyden mixing: mesh for mixing (old mesh)
   NGX = 79   NGY = 79   NGZ = 85
  (NGX  =320   NGY  =320   NGZ  =360)
  gives a total of 530485 points

 initial charge density was supplied:
 charge density of overlapping atoms calculated
 number of electron      10.0000000 magnetization
 keeping initial charge density in first step


--------------------------------------------------------------------------------------------------------


 Maximum index for augmentation-charges            0 (set IRDMAX)


--------------------------------------------------------------------------------------------------------


 First call to EWALD:  gamma=   0.087
 Maximum number of real-space cells 3x 3x 3
 Maximum number of reciprocal cells 3x 3x 3

    FEWALD:  cpu time      0.0010: real time      0.0010


--------------------------------------- Iteration      1(   1)  ---------------------------------------


vdW kernel read from vdw_kernel.bindat
  0.0000  0.2424  0.5071  0.7962  1.1119  1.4567  1.8333  2.2446  2.6937  3.1842
  3.7199  4.3049  4.9438  5.6415  6.4036  7.2358  8.1446  9.1372 10.2212 11.4050
 12.6979 14.1099 15.6519 17.3360 19.1751 21.1837 23.3773 25.7729 28.3892 31.2465
 34.3669 37.7748 41.4965 45.5611 50.0000

    POTLOK:  cpu time      2.0610: real time      2.0660
    SETDIJ:  cpu time      0.0758: real time      0.0758
    TRIAL :  cpu time      0.2363: real time      0.2370
    CORREC:  cpu time      0.0009: real time      0.0009
    --------------------------------------------
      LOOP:  cpu time      2.3749: real time      4.6022

 eigenvalue-minimisations  :   192
 total energy-change (2. order) : 0.9155426E+02  (-0.2618230E+03)
 number of electron      10.0000000 magnetization
 augmentation part       10.0000000 magnetization

 DIPCOR: dipole corrections for dipol
 direction  1 min pos     1, direction  2 min pos     1, direction  3 min pos     1,
 dipolmoment          -0.000000     -0.000000      0.000002 electrons x Angstroem
 Tr[quadrupol]         5.891515

 energy correction for charged system         0.000000 eV
 dipol+quadrupol energy correction           -0.000000 eV
 added-field ion interaction         -0.000000 eV  (added to PSCEN)


 Free energy of the ion-electron system (eV)
  ---------------------------------------------------
  alpha Z        PSCENC =         0.05170769
  Ewald energy   TEWEN  =       201.89951284
  -Hartree energ DENC   =      -661.63006842
  -exchange      EXHF   =         0.00000000
  -V(xc)+E(xc)   XCENC  =        38.50185870
  PAW double counting   =       456.27827010     -458.66347506
  entropy T*S    EENTRO =        -0.00002044
  eigenvalues    EBANDS =       -70.85018806
  atomic energy  EATOM  =       585.96666014
  ---------------------------------------------------
  free energy    TOTEN  =        91.55425748 eV

  energy without entropy =       91.55427792  energy(sigma->0) =       91.55426770


--------------------------------------------------------------------------------------------------------




--------------------------------------- Iteration      1(   2)  ---------------------------------------


    TRIAL :  cpu time      0.3466: real time      0.3466
    CORREC:  cpu time      0.0002: real time      0.0002
    --------------------------------------------
      LOOP:  cpu time      0.3611: real time      0.3614

 eigenvalue-minimisations  :   256
 total energy-change (2. order) :-0.1008859E+03  (-0.1008854E+03)
 number of electron      10.0000000 magnetization
 augmentation part       10.0000000 magnetization

 DIPCOR: dipole corrections for dipol
 direction  1 min pos     1, direction  2 min pos     1, direction  3 min pos     1,
 dipolmoment          -0.000000     -0.000000      0.000002 electrons x Angstroem
 Tr[quadrupol]         5.891515

 energy correction for charged system         0.000000 eV
 dipol+quadrupol energy correction           -0.000000 eV
 added-field ion interaction         -0.000000 eV  (added to PSCEN)


 Free energy of the ion-electron system (eV)
  ---------------------------------------------------
  alpha Z        PSCENC =         0.05170769
  Ewald energy   TEWEN  =       201.89951284
  -Hartree energ DENC   =      -661.63006842
  -exchange      EXHF   =         0.00000000
  -V(xc)+E(xc)   XCENC  =        38.50185870
  PAW double counting   =       456.27827010     -458.66347506
  entropy T*S    EENTRO =        -0.00000000
  eigenvalues    EBANDS =      -171.73612477
  atomic energy  EATOM  =       585.96666014
  ---------------------------------------------------
  free energy    TOTEN  =        -9.33165879 eV

  energy without entropy =       -9.33165879  energy(sigma->0) =       -9.33165879


--------------------------------------------------------------------------------------------------------




--------------------------------------- Iteration      1(   3)  ---------------------------------------


    TRIAL :  cpu time      0.1416: real time      0.1416
    CORREC:  cpu time      0.0004: real time      0.0004
    --------------------------------------------
      LOOP:  cpu time      0.1465: real time      0.1562

 eigenvalue-minimisations  :   128
 total energy-change (2. order) :-0.2867035E+01  (-0.2867035E+01)
 number of electron      10.0000000 magnetization
 augmentation part       10.0000000 magnetization

 DIPCOR: dipole corrections for dipol
 direction  1 min pos     1, direction  2 min pos     1, direction  3 min pos     1,
 dipolmoment          -0.000000     -0.000000      0.000002 electrons x Angstroem
 Tr[quadrupol]         5.891515

 energy correction for charged system         0.000000 eV
 dipol+quadrupol energy correction           -0.000000 eV
 added-field ion interaction         -0.000000 eV  (added to PSCEN)


 Free energy of the ion-electron system (eV)
  ---------------------------------------------------
  alpha Z        PSCENC =         0.05170769
  Ewald energy   TEWEN  =       201.89951284
  -Hartree energ DENC   =      -661.63006842
  -exchange      EXHF   =         0.00000000
  -V(xc)+E(xc)   XCENC  =        38.50185870
  PAW double counting   =       456.27827010     -458.66347506
  entropy T*S    EENTRO =        -0.00000000
  eigenvalues    EBANDS =      -174.60316004
  atomic energy  EATOM  =       585.96666014
  ---------------------------------------------------
  free energy    TOTEN  =       -12.19869407 eV

  energy without entropy =      -12.19869407  energy(sigma->0) =      -12.19869407


--------------------------------------------------------------------------------------------------------




--------------------------------------- Iteration      1(   4)  ---------------------------------------


    TRIAL :  cpu time      0.1406: real time      0.1407
    CORREC:  cpu time      0.0002: real time      0.0002
    --------------------------------------------
      LOOP:  cpu time      0.1457: real time      0.1552

 eigenvalue-minimisations  :   128
 total energy-change (2. order) :-0.1503394E-01  (-0.1503394E-01)
 number of electron      10.0000000 magnetization
 augmentation part       10.0000000 magnetization

 DIPCOR: dipole corrections for dipol
 direction  1 min pos     1, direction  2 min pos     1, direction  3 min pos     1,
 dipolmoment          -0.000000     -0.000000      0.000002 electrons x Angstroem
 Tr[quadrupol]         5.891515

 energy correction for charged system         0.000000 eV
 dipol+quadrupol energy correction           -0.000000 eV
 added-field ion interaction         -0.000000 eV  (added to PSCEN)


 Free energy of the ion-electron system (eV)
  ---------------------------------------------------
  alpha Z        PSCENC =         0.05170769
  Ewald energy   TEWEN  =       201.89951284
  -Hartree energ DENC   =      -661.63006842
  -exchange      EXHF   =         0.00000000
  -V(xc)+E(xc)   XCENC  =        38.50185870
  PAW double counting   =       456.27827010     -458.66347506
  entropy T*S    EENTRO =        -0.00000000
  eigenvalues    EBANDS =      -174.61819398
  atomic energy  EATOM  =       585.96666014
  ---------------------------------------------------
  free energy    TOTEN  =       -12.21372800 eV

  energy without entropy =      -12.21372800  energy(sigma->0) =      -12.21372800


--------------------------------------------------------------------------------------------------------




--------------------------------------- Iteration      1(   5)  ---------------------------------------


    TRIAL :  cpu time      0.3343: real time      0.3346
    CORREC:  cpu time      0.0002: real time      0.0002
    CHARGE:  cpu time      0.0607: real time      0.0611
    --------------------------------------------
      LOOP:  cpu time      0.4012: real time      0.4103

 eigenvalue-minimisations  :   256
 total energy-change (2. order) :-0.1199816E-03  (-0.1199815E-03)
 number of electron       9.9999999 magnetization
 augmentation part        0.7400344 magnetization

 DIPCOR: dipole corrections for dipol
 direction  1 min pos     1, direction  2 min pos     1, direction  3 min pos     1,
 dipolmoment          -0.000000     -0.000000      0.000002 electrons x Angstroem
 Tr[quadrupol]         5.891515

 energy correction for charged system         0.000000 eV
 dipol+quadrupol energy correction           -0.000000 eV
 added-field ion interaction         -0.000000 eV  (added to PSCEN)


 Free energy of the ion-electron system (eV)
  ---------------------------------------------------
  alpha Z        PSCENC =         0.05170769
  Ewald energy   TEWEN  =       201.89951284
  -Hartree energ DENC   =      -661.63006842
  -exchange      EXHF   =         0.00000000
  -V(xc)+E(xc)   XCENC  =        38.50185870
  PAW double counting   =       456.27827010     -458.66347506
  entropy T*S    EENTRO =        -0.00000000
  eigenvalues    EBANDS =      -174.61831396
  atomic energy  EATOM  =       585.96666014
  ---------------------------------------------------
  free energy    TOTEN  =       -12.21384798 eV

  energy without entropy =      -12.21384798  energy(sigma->0) =      -12.21384798


--------------------------------------------------------------------------------------------------------




--------------------------------------- Iteration      1(   6)  ---------------------------------------


    POTLOK:  cpu time      1.4842: real time      1.4844
    SETDIJ:  cpu time      0.0759: real time      0.0759
    TRIAL :  cpu time      6.3596: real time      6.3623
    CORREC:  cpu time      1.6495: real time      1.6503
    CHARGE:  cpu time      0.0433: real time      0.0433
    --------------------------------------------
      LOOP:  cpu time      9.6263: real time      9.6302

 eigenvalue-minimisations  :     0
 total energy-change (2. order) : 0.2072943E+01  (-0.1004496E+01)
 number of electron       9.9999999 magnetization
 augmentation part        0.6830623 magnetization

 DIPCOR: dipole corrections for dipol
 direction  1 min pos     1, direction  2 min pos     1, direction  3 min pos     1,
 dipolmoment           0.000000      0.000000      0.065189 electrons x Angstroem
 Tr[quadrupol]         5.642292

 energy correction for charged system         0.000000 eV
 dipol+quadrupol energy correction           -0.000013 eV
 added-field ion interaction         -0.000445 eV  (added to PSCEN)


 Free energy of the ion-electron system (eV)
  ---------------------------------------------------
  alpha Z        PSCENC =         0.05040636
  Ewald energy   TEWEN  =       201.89951284
  -Hartree energ DENC   =      -712.64081012
  -exchange      EXHF   =         0.00000000
  -V(xc)+E(xc)   XCENC  =        41.30756696
  PAW double counting   =       843.50076895     -846.36162758
  entropy T*S    EENTRO =        -0.00000000
  eigenvalues    EBANDS =      -123.86338300
  atomic energy  EATOM  =       585.96666014
  ---------------------------------------------------
  free energy    TOTEN  =       -10.14090547 eV

  energy without entropy =      -10.14090547  energy(sigma->0) =      -10.14090547


--------------------------------------------------------------------------------------------------------




--------------------------------------- Iteration      1(   7)  ---------------------------------------


    POTLOK:  cpu time      1.4820: real time      1.4824
    SETDIJ:  cpu time      0.0759: real time      0.0759
    TRIAL :  cpu time      0.0985: real time      0.0985
    CORREC:  cpu time      1.6474: real time      1.6479
    CHARGE:  cpu time      0.0435: real time      0.0435
    --------------------------------------------
      LOOP:  cpu time      3.3532: real time      3.3623

 eigenvalue-minimisations  :     0
 total energy-change (2. order) :-0.1014432E+01  (-0.1318144E+00)
 number of electron       9.9999999 magnetization
 augmentation part        0.6622482 magnetization

 DIPCOR: dipole corrections for dipol
 direction  1 min pos     1, direction  2 min pos     1, direction  3 min pos     1,
 dipolmoment          -0.000000      0.000000      0.041515 electrons x Angstroem
 Tr[quadrupol]         5.314467

 energy correction for charged system         0.000000 eV
 dipol+quadrupol energy correction           -0.000005 eV
 added-field ion interaction         -0.000284 eV  (added to PSCEN)


 Free energy of the ion-electron system (eV)
  ---------------------------------------------------
  alpha Z        PSCENC =         0.05098401
  Ewald energy   TEWEN  =       201.89951284
  -Hartree energ DENC   =      -687.10929726
  -exchange      EXHF   =         0.00000000
  -V(xc)+E(xc)   XCENC  =        39.93010594
  PAW double counting   =       822.04268245     -824.68297314
  entropy T*S    EENTRO =        -0.00000000
  eigenvalues    EBANDS =      -149.25301257
  atomic energy  EATOM  =       585.96666014
  ---------------------------------------------------
  free energy    TOTEN  =       -11.15533759 eV

  energy without entropy =      -11.15533759  energy(sigma->0) =      -11.15533759


--------------------------------------------------------------------------------------------------------




--------------------------------------- Iteration      1(   8)  ---------------------------------------


    POTLOK:  cpu time      1.4792: real time      1.4795
    SETDIJ:  cpu time      0.0759: real time      0.0759
    TRIAL :  cpu time      0.0974: real time      0.0974
    CORREC:  cpu time      1.6478: real time      1.6484
    CHARGE:  cpu time      0.0431: real time      0.0431
    --------------------------------------------
      LOOP:  cpu time      3.3576: real time      3.3585

 eigenvalue-minimisations  :     0
 total energy-change (2. order) :-0.1317691E+00  (-0.4624652E-01)
 number of electron       9.9999999 magnetization
 augmentation part        0.6585508 magnetization

 DIPCOR: dipole corrections for dipol
 direction  1 min pos     1, direction  2 min pos     1, direction  3 min pos     1,
 dipolmoment          -0.000000     -0.000000     -0.010568 electrons x Angstroem
 Tr[quadrupol]         5.298698

 energy correction for charged system         0.000000 eV
 dipol+quadrupol energy correction           -0.000000 eV
 added-field ion interaction          0.000072 eV  (added to PSCEN)


 Free energy of the ion-electron system (eV)
  ---------------------------------------------------
  alpha Z        PSCENC =         0.05148939
  Ewald energy   TEWEN  =       201.89951284
  -Hartree energ DENC   =      -685.04653435
  -exchange      EXHF   =         0.00000000
  -V(xc)+E(xc)   XCENC  =        39.82247923
  PAW double counting   =       827.14087167     -829.64303757
  entropy T*S    EENTRO =        -0.00000000
  eigenvalues    EBANDS =      -151.47854805
  atomic energy  EATOM  =       585.96666014
  ---------------------------------------------------
  free energy    TOTEN  =       -11.28710670 eV

  energy without entropy =      -11.28710670  energy(sigma->0) =      -11.28710670


--------------------------------------------------------------------------------------------------------




--------------------------------------- Iteration      1(   9)  ---------------------------------------


    POTLOK:  cpu time      1.4840: real time      1.4849
    SETDIJ:  cpu time      0.0759: real time      0.0759
    TRIAL :  cpu time      0.0980: real time      0.0980
    CORREC:  cpu time      1.6485: real time      1.6488
    CHARGE:  cpu time      0.0434: real time      0.0434
    --------------------------------------------
      LOOP:  cpu time      3.3542: real time      3.3650

 eigenvalue-minimisations  :     0
 total energy-change (2. order) :-0.4623489E-01  (-0.1367961E-01)
 number of electron       9.9999999 magnetization
 augmentation part        0.6588163 magnetization

 DIPCOR: dipole corrections for dipol
 direction  1 min pos     1, direction  2 min pos     1, direction  3 min pos     1,
 dipolmoment          -0.000000     -0.000000     -0.022391 electrons x Angstroem
 Tr[quadrupol]         5.312417

 energy correction for charged system         0.000000 eV
 dipol+quadrupol energy correction           -0.000001 eV
 added-field ion interaction          0.000153 eV  (added to PSCEN)


 Free energy of the ion-electron system (eV)
  ---------------------------------------------------
  alpha Z        PSCENC =         0.05180244
  Ewald energy   TEWEN  =       201.89951284
  -Hartree energ DENC   =      -684.59816339
  -exchange      EXHF   =         0.00000000
  -V(xc)+E(xc)   XCENC  =        39.80527270
  PAW double counting   =       831.41774924     -833.88545574
  entropy T*S    EENTRO =        -0.00000000
  eigenvalues    EBANDS =      -151.99071981
  atomic energy  EATOM  =       585.96666014
  ---------------------------------------------------
  free energy    TOTEN  =       -11.33334159 eV

  energy without entropy =      -11.33334159  energy(sigma->0) =      -11.33334159


--------------------------------------------------------------------------------------------------------




--------------------------------------- Iteration      1(  10)  ---------------------------------------


    POTLOK:  cpu time      1.4790: real time      1.4795
    SETDIJ:  cpu time      0.0759: real time      0.0759
    TRIAL :  cpu time      0.0975: real time      0.0975
    CORREC:  cpu time      1.6471: real time      1.6476
    CHARGE:  cpu time      0.0434: real time      0.0434
    --------------------------------------------
      LOOP:  cpu time      3.3566: real time      3.3579

 eigenvalue-minimisations  :     0
 total energy-change (2. order) :-0.1365596E-01  (-0.5790782E-02)
 number of electron       9.9999999 magnetization
 augmentation part        0.6586774 magnetization

 DIPCOR: dipole corrections for dipol
 direction  1 min pos     1, direction  2 min pos     1, direction  3 min pos     1,
 dipolmoment           0.000000     -0.000000     -0.025418 electrons x Angstroem
 Tr[quadrupol]         5.338542

 energy correction for charged system         0.000000 eV
 dipol+quadrupol energy correction           -0.000002 eV
 added-field ion interaction          0.000174 eV  (added to PSCEN)


 Free energy of the ion-electron system (eV)
  ---------------------------------------------------
  alpha Z        PSCENC =         0.05188079
  Ewald energy   TEWEN  =       201.89951284
  -Hartree energ DENC   =      -684.11302151
  -exchange      EXHF   =         0.00000000
  -V(xc)+E(xc)   XCENC  =        39.78451439
  PAW double counting   =       832.51873667     -834.98432637
  entropy T*S    EENTRO =        -0.00000000
  eigenvalues    EBANDS =      -152.47095449
  atomic energy  EATOM  =       585.96666014
  ---------------------------------------------------
  free energy    TOTEN  =       -11.34699755 eV

  energy without entropy =      -11.34699755  energy(sigma->0) =      -11.34699755


--------------------------------------------------------------------------------------------------------




--------------------------------------- Iteration      1(  11)  ---------------------------------------


    POTLOK:  cpu time      1.4800: real time      1.4804
    SETDIJ:  cpu time      0.0759: real time      0.0759
    TRIAL :  cpu time      0.0986: real time      0.0986
    CORREC:  cpu time      1.6506: real time      1.6511
    CHARGE:  cpu time      0.0432: real time      0.0432
    --------------------------------------------
      LOOP:  cpu time      3.3533: real time      3.3630

 eigenvalue-minimisations  :     0
 total energy-change (2. order) :-0.5775587E-02  (-0.2308507E-02)
 number of electron       9.9999999 magnetization
 augmentation part        0.6587963 magnetization

 DIPCOR: dipole corrections for dipol
 direction  1 min pos     1, direction  2 min pos     1, direction  3 min pos     1,
 dipolmoment           0.000000     -0.000000     -0.023542 electrons x Angstroem
 Tr[quadrupol]         5.360052

 energy correction for charged system         0.000000 eV
 dipol+quadrupol energy correction           -0.000002 eV
 added-field ion interaction          0.000161 eV  (added to PSCEN)


 Free energy of the ion-electron system (eV)
  ---------------------------------------------------
  alpha Z        PSCENC =         0.05187881
  Ewald energy   TEWEN  =       201.89951284
  -Hartree energ DENC   =      -683.79580037
  -exchange      EXHF   =         0.00000000
  -V(xc)+E(xc)   XCENC  =        39.76957329
  PAW double counting   =       832.27950939     -834.74276222
  entropy T*S    EENTRO =        -0.00000000
  eigenvalues    EBANDS =      -152.78134502
  atomic energy  EATOM  =       585.96666014
  ---------------------------------------------------
  free energy    TOTEN  =       -11.35277313 eV

  energy without entropy =      -11.35277313  energy(sigma->0) =      -11.35277313


--------------------------------------------------------------------------------------------------------




--------------------------------------- Iteration      1(  12)  ---------------------------------------


    POTLOK:  cpu time      1.4817: real time      1.4826
    SETDIJ:  cpu time      0.0758: real time      0.0758
    TRIAL :  cpu time      0.0977: real time      0.0977
    CORREC:  cpu time      1.6456: real time      1.6461
    CHARGE:  cpu time      0.0433: real time      0.0433
    --------------------------------------------
      LOOP:  cpu time      3.3582: real time      3.3597

 eigenvalue-minimisations  :     0
 total energy-change (2. order) :-0.2303404E-02  (-0.6953719E-03)
 number of electron       9.9999999 magnetization
 augmentation part        0.6588952 magnetization

 DIPCOR: dipole corrections for dipol
 direction  1 min pos     1, direction  2 min pos     1, direction  3 min pos     1,
 dipolmoment          -0.000000      0.000000     -0.021209 electrons x Angstroem
 Tr[quadrupol]         5.371118

 energy correction for charged system         0.000000 eV
 dipol+quadrupol energy correction           -0.000001 eV
 added-field ion interaction          0.000145 eV  (added to PSCEN)


 Free energy of the ion-electron system (eV)
  ---------------------------------------------------
  alpha Z        PSCENC =         0.05186142
  Ewald energy   TEWEN  =       201.89951284
  -Hartree energ DENC   =      -683.56265771
  -exchange      EXHF   =         0.00000000
  -V(xc)+E(xc)   XCENC  =        39.75604520
  PAW double counting   =       831.49812106     -833.96333351
  entropy T*S    EENTRO =        -0.00000000
  eigenvalues    EBANDS =      -153.00128598
  atomic energy  EATOM  =       585.96666014
  ---------------------------------------------------
  free energy    TOTEN  =       -11.35507654 eV

  energy without entropy =      -11.35507654  energy(sigma->0) =      -11.35507654


--------------------------------------------------------------------------------------------------------




--------------------------------------- Iteration      1(  13)  ---------------------------------------


    POTLOK:  cpu time      1.4825: real time      1.4828
    SETDIJ:  cpu time      0.0760: real time      0.0760
    TRIAL :  cpu time      0.0977: real time      0.0977
    CORREC:  cpu time      1.6437: real time      1.6441
    CHARGE:  cpu time      0.0429: real time      0.0429
    --------------------------------------------
      LOOP:  cpu time      3.3564: real time      3.3573

 eigenvalue-minimisations  :     0
 total energy-change (2. order) :-0.6950876E-03  (-0.1708173E-03)
 number of electron       9.9999999 magnetization
 augmentation part        0.6588905 magnetization

 DIPCOR: dipole corrections for dipol
 direction  1 min pos     1, direction  2 min pos     1, direction  3 min pos     1,
 dipolmoment           0.000000      0.000000     -0.019828 electrons x Angstroem
 Tr[quadrupol]         5.374527

 energy correction for charged system         0.000000 eV
 dipol+quadrupol energy correction           -0.000001 eV
 added-field ion interaction          0.000135 eV  (added to PSCEN)


 Free energy of the ion-electron system (eV)
  ---------------------------------------------------
  alpha Z        PSCENC =         0.05184782
  Ewald energy   TEWEN  =       201.89951284
  -Hartree energ DENC   =      -683.45180443
  -exchange      EXHF   =         0.00000000
  -V(xc)+E(xc)   XCENC  =        39.74883307
  PAW double counting   =       830.91418107     -833.38168279
  entropy T*S    EENTRO =        -0.00000000
  eigenvalues    EBANDS =      -153.10331934
  atomic energy  EATOM  =       585.96666014
  ---------------------------------------------------
  free energy    TOTEN  =       -11.35577163 eV

  energy without entropy =      -11.35577163  energy(sigma->0) =      -11.35577163


--------------------------------------------------------------------------------------------------------




--------------------------------------- Iteration      1(  14)  ---------------------------------------


    POTLOK:  cpu time      1.4771: real time      1.4775
    SETDIJ:  cpu time      0.0759: real time      0.0759
    TRIAL :  cpu time      0.0968: real time      0.0971
    CORREC:  cpu time      1.6464: real time      1.6467
    CHARGE:  cpu time      0.0433: real time      0.0433
    --------------------------------------------
      LOOP:  cpu time      3.3534: real time      3.3544

 eigenvalue-minimisations  :     0
 total energy-change (2. order) :-0.1708710E-03  (-0.4043385E-04)
 number of electron       9.9999999 magnetization
 augmentation part        0.6588690 magnetization

 DIPCOR: dipole corrections for dipol
 direction  1 min pos     1, direction  2 min pos     1, direction  3 min pos     1,
 dipolmoment           0.000000     -0.000000     -0.019259 electrons x Angstroem
 Tr[quadrupol]         5.375364

 energy correction for charged system         0.000000 eV
 dipol+quadrupol energy correction           -0.000001 eV
 added-field ion interaction          0.000132 eV  (added to PSCEN)


 Free energy of the ion-electron system (eV)
  ---------------------------------------------------
  alpha Z        PSCENC =         0.05184003
  Ewald energy   TEWEN  =       201.89951284
  -Hartree energ DENC   =      -683.42977121
  -exchange      EXHF   =         0.00000000
  -V(xc)+E(xc)   XCENC  =        39.74711482
  PAW double counting   =       830.58488674     -833.05317949
  entropy T*S    EENTRO =        -0.00000000
  eigenvalues    EBANDS =      -153.12300636
  atomic energy  EATOM  =       585.96666014
  ---------------------------------------------------
  free energy    TOTEN  =       -11.35594250 eV

  energy without entropy =      -11.35594250  energy(sigma->0) =      -11.35594250


--------------------------------------------------------------------------------------------------------




--------------------------------------- Iteration      1(  15)  ---------------------------------------


    POTLOK:  cpu time      1.4794: real time      1.4803
    SETDIJ:  cpu time      0.0758: real time      0.0759
    TRIAL :  cpu time      0.0973: real time      0.0974
    CORREC:  cpu time      1.6480: real time      1.6485
    CHARGE:  cpu time      0.0434: real time      0.0434
    --------------------------------------------
      LOOP:  cpu time      3.3496: real time      3.3598

 eigenvalue-minimisations  :     0
 total energy-change (2. order) :-0.4045412E-04  (-0.9864920E-05)
 number of electron       9.9999999 magnetization
 augmentation part        0.6588509 magnetization

 DIPCOR: dipole corrections for dipol
 direction  1 min pos     1, direction  2 min pos     1, direction  3 min pos     1,
 dipolmoment           0.000000     -0.000000     -0.019111 electrons x Angstroem
 Tr[quadrupol]         5.375370

 energy correction for charged system         0.000000 eV
 dipol+quadrupol energy correction           -0.000001 eV
 added-field ion interaction          0.000131 eV  (added to PSCEN)


 Free energy of the ion-electron system (eV)
  ---------------------------------------------------
  alpha Z        PSCENC =         0.05183739
  Ewald energy   TEWEN  =       201.89951284
  -Hartree energ DENC   =      -683.43434223
  -exchange      EXHF   =         0.00000000
  -V(xc)+E(xc)   XCENC  =        39.74718300
  PAW double counting   =       830.40771221     -832.87619394
  entropy T*S    EENTRO =        -0.00000000
  eigenvalues    EBANDS =      -153.11835235
  atomic energy  EATOM  =       585.96666014
  ---------------------------------------------------
  free energy    TOTEN  =       -11.35598295 eV

  energy without entropy =      -11.35598295  energy(sigma->0) =      -11.35598295


--------------------------------------------------------------------------------------------------------




--------------------------------------- Iteration      1(  16)  ---------------------------------------


    POTLOK:  cpu time      1.4777: real time      1.4781
    SETDIJ:  cpu time      0.0759: real time      0.0759
    TRIAL :  cpu time      0.0972: real time      0.0972
    CORREC:  cpu time      1.6457: real time      1.6461
    CHARGE:  cpu time      0.0441: real time      0.0441
    --------------------------------------------
      LOOP:  cpu time      3.3492: real time      3.3558

 eigenvalue-minimisations  :     0
 total energy-change (2. order) :-0.9892441E-05  (-0.2835883E-05)
 number of electron       9.9999999 magnetization
 augmentation part        0.6588566 magnetization

 DIPCOR: dipole corrections for dipol
 direction  1 min pos     1, direction  2 min pos     1, direction  3 min pos     1,
 dipolmoment          -0.000000     -0.000000     -0.019086 electrons x Angstroem
 Tr[quadrupol]         5.375127

 energy correction for charged system         0.000000 eV
 dipol+quadrupol energy correction           -0.000001 eV
 added-field ion interaction          0.000130 eV  (added to PSCEN)


 Free energy of the ion-electron system (eV)
  ---------------------------------------------------
  alpha Z        PSCENC =         0.05183708
  Ewald energy   TEWEN  =       201.89951284
  -Hartree energ DENC   =      -683.43625332
  -exchange      EXHF   =         0.00000000
  -V(xc)+E(xc)   XCENC  =        39.74722062
  PAW double counting   =       830.31563745     -832.78417017
  entropy T*S    EENTRO =        -0.00000000
  eigenvalues    EBANDS =      -153.11643748
  atomic energy  EATOM  =       585.96666014
  ---------------------------------------------------
  free energy    TOTEN  =       -11.35599284 eV

  energy without entropy =      -11.35599284  energy(sigma->0) =      -11.35599284


--------------------------------------------------------------------------------------------------------




--------------------------------------- Iteration      1(  17)  ---------------------------------------


    POTLOK:  cpu time      1.4977: real time      1.4980
    SETDIJ:  cpu time      0.0757: real time      0.0759
    TRIAL :  cpu time      0.0971: real time      0.0972
    CORREC:  cpu time      1.6474: real time      1.6477
    CHARGE:  cpu time      0.0433: real time      0.0433
    --------------------------------------------
      LOOP:  cpu time      3.3669: real time      3.3761

 eigenvalue-minimisations  :     0
 total energy-change (2. order) :-0.2862137E-05  (-0.8707079E-06)
 number of electron       9.9999999 magnetization
 augmentation part        0.6588652 magnetization

 DIPCOR: dipole corrections for dipol
 direction  1 min pos     1, direction  2 min pos     1, direction  3 min pos     1,
 dipolmoment          -0.000000     -0.000000     -0.019074 electrons x Angstroem
 Tr[quadrupol]         5.374888

 energy correction for charged system         0.000000 eV
 dipol+quadrupol energy correction           -0.000001 eV
 added-field ion interaction          0.000130 eV  (added to PSCEN)


 Free energy of the ion-electron system (eV)
  ---------------------------------------------------
  alpha Z        PSCENC =         0.05183697
  Ewald energy   TEWEN  =       201.89951284
  -Hartree energ DENC   =      -683.44082221
  -exchange      EXHF   =         0.00000000
  -V(xc)+E(xc)   XCENC  =        39.74744370
  PAW double counting   =       830.27476717     -832.74337580
  entropy T*S    EENTRO =        -0.00000000
  eigenvalues    EBANDS =      -153.11201851
  atomic energy  EATOM  =       585.96666014
  ---------------------------------------------------
  free energy    TOTEN  =       -11.35599571 eV

  energy without entropy =      -11.35599571  energy(sigma->0) =      -11.35599571


--------------------------------------------------------------------------------------------------------




--------------------------------------- Iteration      1(  18)  ---------------------------------------


    POTLOK:  cpu time      1.4771: real time      1.4779
    SETDIJ:  cpu time      0.0758: real time      0.0758
    TRIAL :  cpu time      0.0974: real time      0.0974
    CORREC:  cpu time      1.6424: real time      1.6428
    CHARGE:  cpu time      0.0432: real time      0.0432
    --------------------------------------------
      LOOP:  cpu time      3.3417: real time      3.3514

 eigenvalue-minimisations  :     0
 total energy-change (2. order) :-0.8856138E-06  (-0.2675437E-06)
 number of electron       9.9999999 magnetization
 augmentation part        0.6588708 magnetization

 DIPCOR: dipole corrections for dipol
 direction  1 min pos     1, direction  2 min pos     1, direction  3 min pos     1,
 dipolmoment           0.000000     -0.000000     -0.019070 electrons x Angstroem
 Tr[quadrupol]         5.374716

 energy correction for charged system         0.000000 eV
 dipol+quadrupol energy correction           -0.000001 eV
 added-field ion interaction          0.000130 eV  (added to PSCEN)


 Free energy of the ion-electron system (eV)
  ---------------------------------------------------
  alpha Z        PSCENC =         0.05183690
  Ewald energy   TEWEN  =       201.89951284
  -Hartree energ DENC   =      -683.44354176
  -exchange      EXHF   =         0.00000000
  -V(xc)+E(xc)   XCENC  =        39.74759629
  PAW double counting   =       830.26223781     -832.73090864
  entropy T*S    EENTRO =        -0.00000000
  eigenvalues    EBANDS =      -153.10939016
  atomic energy  EATOM  =       585.96666014
  ---------------------------------------------------
  free energy    TOTEN  =       -11.35599659 eV

  energy without entropy =      -11.35599659  energy(sigma->0) =      -11.35599659


--------------------------------------------------------------------------------------------------------




--------------------------------------- Iteration      1(  19)  ---------------------------------------


    POTLOK:  cpu time      1.4770: real time      1.4774
    SETDIJ:  cpu time      0.0759: real time      0.0759
    TRIAL :  cpu time      0.0978: real time      0.0978
    CORREC:  cpu time      1.6432: real time      1.6438
    CHARGE:  cpu time      0.0435: real time      0.0435
    --------------------------------------------
      LOOP:  cpu time      3.3429: real time      3.3526

 eigenvalue-minimisations  :     0
 total energy-change (2. order) :-0.2693624E-06  (-0.8276564E-07)
 number of electron       9.9999999 magnetization
 augmentation part        0.6588755 magnetization

 DIPCOR: dipole corrections for dipol
 direction  1 min pos     1, direction  2 min pos     1, direction  3 min pos     1,
 dipolmoment          -0.000000      0.000000     -0.019068 electrons x Angstroem
 Tr[quadrupol]         5.374610

 energy correction for charged system         0.000000 eV
 dipol+quadrupol energy correction           -0.000001 eV
 added-field ion interaction          0.000130 eV  (added to PSCEN)


 Free energy of the ion-electron system (eV)
  ---------------------------------------------------
  alpha Z        PSCENC =         0.05183690
  Ewald energy   TEWEN  =       201.89951284
  -Hartree energ DENC   =      -683.44507448
  -exchange      EXHF   =         0.00000000
  -V(xc)+E(xc)   XCENC  =        39.74769365
  PAW double counting   =       830.26523755     -832.73394303
  entropy T*S    EENTRO =        -0.00000000
  eigenvalues    EBANDS =      -153.10792043
  atomic energy  EATOM  =       585.96666014
  ---------------------------------------------------
  free energy    TOTEN  =       -11.35599686 eV

  energy without entropy =      -11.35599686  energy(sigma->0) =      -11.35599686


--------------------------------------------------------------------------------------------------------




--------------------------------------- Iteration      1(  20)  ---------------------------------------


    POTLOK:  cpu time      1.4747: real time      1.4753
    SETDIJ:  cpu time      0.0758: real time      0.0758
    TRIAL :  cpu time      0.0975: real time      0.0975
    CORREC:  cpu time      1.6415: real time      1.6418
    CHARGE:  cpu time      0.0430: real time      0.0431
    --------------------------------------------
      LOOP:  cpu time      3.3379: real time      3.3474

 eigenvalue-minimisations  :     0
 total energy-change (2. order) :-0.8057850E-07  (-0.2575053E-07)
 number of electron       9.9999999 magnetization
 augmentation part        0.6588780 magnetization

 DIPCOR: dipole corrections for dipol
 direction  1 min pos     1, direction  2 min pos     1, direction  3 min pos     1,
 dipolmoment          -0.000000      0.000000     -0.019066 electrons x Angstroem
 Tr[quadrupol]         5.374562

 energy correction for charged system         0.000000 eV
 dipol+quadrupol energy correction           -0.000001 eV
 added-field ion interaction          0.000130 eV  (added to PSCEN)


 Free energy of the ion-electron system (eV)
  ---------------------------------------------------
  alpha Z        PSCENC =         0.05183688
  Ewald energy   TEWEN  =       201.89951284
  -Hartree energ DENC   =      -683.44617262
  -exchange      EXHF   =         0.00000000
  -V(xc)+E(xc)   XCENC  =        39.74776081
  PAW double counting   =       830.27365314     -832.74238138
  entropy T*S    EENTRO =        -0.00000000
  eigenvalues    EBANDS =      -153.10686676
  atomic energy  EATOM  =       585.96666014
  ---------------------------------------------------
  free energy    TOTEN  =       -11.35599694 eV

  energy without entropy =      -11.35599694  energy(sigma->0) =      -11.35599694


--------------------------------------------------------------------------------------------------------




--------------------------------------- Iteration      1(  21)  ---------------------------------------


    POTLOK:  cpu time      1.4790: real time      1.4799
    SETDIJ:  cpu time      0.0759: real time      0.0759
    TRIAL :  cpu time      0.0974: real time      0.0975
    CORREC:  cpu time      1.6443: real time      1.6449
    CHARGE:  cpu time      0.0430: real time      0.0430
    --------------------------------------------
      LOOP:  cpu time      3.3533: real time      3.3548

 eigenvalue-minimisations  :     0
 total energy-change (2. order) :-0.2314010E-07  (-0.1058162E-07)
 number of electron       9.9999999 magnetization
 augmentation part        0.6588794 magnetization

 DIPCOR: dipole corrections for dipol
 direction  1 min pos     1, direction  2 min pos     1, direction  3 min pos     1,
 dipolmoment           0.000000     -0.000000     -0.019065 electrons x Angstroem
 Tr[quadrupol]         5.374546

 energy correction for charged system         0.000000 eV
 dipol+quadrupol energy correction           -0.000001 eV
 added-field ion interaction          0.000130 eV  (added to PSCEN)


 Free energy of the ion-electron system (eV)
  ---------------------------------------------------
  alpha Z        PSCENC =         0.05183687
  Ewald energy   TEWEN  =       201.89951284
  -Hartree energ DENC   =      -683.44643540
  -exchange      EXHF   =         0.00000000
  -V(xc)+E(xc)   XCENC  =        39.74777807
  PAW double counting   =       830.28104718     -832.74978703
  entropy T*S    EENTRO =        -0.00000000
  eigenvalues    EBANDS =      -153.10660963
  atomic energy  EATOM  =       585.96666014
  ---------------------------------------------------
  free energy    TOTEN  =       -11.35599696 eV

  energy without entropy =      -11.35599696  energy(sigma->0) =      -11.35599696


--------------------------------------------------------------------------------------------------------




--------------------------------------- Iteration      1(  22)  ---------------------------------------


    POTLOK:  cpu time      1.4794: real time      1.4798
    SETDIJ:  cpu time      0.0761: real time      0.0761
    TRIAL :  cpu time      0.0981: real time      0.0981
    CORREC:  cpu time      1.6449: real time      1.6454
    EDDIAG:  cpu time      0.0543: real time      0.0547
    CHARGE:  cpu time      0.0449: real time      0.0449
    --------------------------------------------
      LOOP:  cpu time      3.4023: real time      3.4126

 eigenvalue-minimisations  :     0
 total energy-change (2. order) :-0.5945196E-08  (-0.4305481E-08)
 number of electron       9.9999999 magnetization
 augmentation part        0.6588795 magnetization

 DIPCOR: dipole corrections for dipol
 direction  1 min pos     1, direction  2 min pos     1, direction  3 min pos     1,
 dipolmoment           0.000000     -0.000000     -0.019065 electrons x Angstroem
 Tr[quadrupol]         5.374548

 energy correction for charged system         0.000000 eV
 dipol+quadrupol energy correction           -0.000001 eV
 added-field ion interaction          0.000130 eV  (added to PSCEN)


 Free energy of the ion-electron system (eV)
  ---------------------------------------------------
  alpha Z        PSCENC =         0.05183686
  Ewald energy   TEWEN  =       201.89951284
  -Hartree energ DENC   =      -683.44651322
  -exchange      EXHF   =         0.00000000
  -V(xc)+E(xc)   XCENC  =        39.74778381
  PAW double counting   =       830.28714190     -832.75588855
  entropy T*S    EENTRO =        -0.00000000
  eigenvalues    EBANDS =      -153.10653074
  atomic energy  EATOM  =       585.96666014
  ---------------------------------------------------
  free energy    TOTEN  =       -11.35599697 eV

  energy without entropy =      -11.35599697  energy(sigma->0) =      -11.35599697


--------------------------------------------------------------------------------------------------------


  average scaling for gradient   1.7186


 average (electrostatic) potential at core
  the test charge radii are     0.6991  0.7215
  (the norm of the test charge is              1.0000)
       1 -61.8978       2 -83.9312



 E-fermi :  -9.0469     XC(G=0):  -0.1099     alpha+bet : -0.0207

 Fermi energy:        -9.0468530458

 k-point     1 :       0.0000    0.0000    0.0000
  band No.  band energies     occupation
      1     -29.3943      2.00000
      2     -14.2158      2.00000
      3     -11.8148      2.00000
      4     -11.8148      2.00000
      5      -9.3136      2.00000
      6      -2.3228      0.00000
      7      -2.3228      0.00000
      8      -0.4150      0.00000
      9       0.0750      0.00000
     10       0.1628      0.00000
     11       0.2301      0.00000
     12       0.2301      0.00000
     13       0.3488      0.00000
     14       0.3713      0.00000
     15       0.4761      0.00000
     16       0.5320      0.00000
     17       0.5320      0.00000
     18       0.5539      0.00000
     19       0.6902      0.00000
     20       0.6902      0.00000
     21       0.7013      0.00000
     22       0.7163      0.00000
     23       0.7194      0.00000
     24       0.7315      0.00000
     25       0.7373      0.00000
     26       0.7373      0.00000
     27       0.9362      0.00000
     28       0.9723      0.00000
     29       0.9723      0.00000
     30       1.0171      0.00000
     31       1.0417      0.00000
     32       1.0526      0.00000
     33       1.0526      0.00000
     34       1.0843      0.00000
     35       1.2125      0.00000
     36       1.2476      0.00000
     37       1.3358      0.00000
     38       1.3358      0.00000
     39       1.3623      0.00000
     40       1.4462      0.00000
     41       1.4838      0.00000
     42       1.5542      0.00000
     43       1.5975      0.00000
     44       1.5975      0.00000
     45       1.6460      0.00000
     46       1.6460      0.00000
     47       1.6734      0.00000
     48       1.6748      0.00000
     49       1.7203      0.00000
     50       1.7259      0.00000
     51       1.7259      0.00000
     52       1.7401      0.00000
     53       1.7598      0.00000
     54       1.8012      0.00000
     55       1.8027      0.00000
     56       1.8027      0.00000
     57       1.8207      0.00000
     58       1.8434      0.00000
     59       1.8434      0.00000
     60       1.8560      0.00000
     61       1.8732      0.00000
     62       1.8759      0.00000
     63       1.8759      0.00000
     64       1.8803      0.00000


--------------------------------------------------------------------------------------------------------


 soft charge-density along one line, spin component           1
         0         1         2         3         4         5         6         7         8         9
 total charge-density along one line

 pseudopotential strength for first ion, spin component:           1
 10.450  13.900   0.000   0.022  -0.000  -0.000  -0.065   0.000
 13.900  18.489   0.000   0.029  -0.000  -0.000  -0.085   0.000
  0.000   0.000  -4.519  -0.000   0.000   8.888   0.000  -0.000
  0.022   0.029  -0.000  -4.506  -0.000   0.000   8.823  -0.000
 -0.000  -0.000   0.000  -0.000  -4.519  -0.000  -0.000   8.888
 -0.000  -0.000   8.888   0.000  -0.000 -19.627  -0.000   0.000
 -0.065  -0.085   0.000   8.823  -0.000  -0.000 -19.424   0.000
  0.000   0.000  -0.000  -0.000   8.888   0.000   0.000 -19.627
 total augmentation occupancy for first ion, spin component:           1
  7.000  -3.182   0.000   2.168  -0.000  -0.000   0.385  -0.000
 -3.182   1.885  -0.000  -1.661   0.000   0.000  -0.230   0.000
  0.000  -0.000   0.811  -0.000  -0.000   0.058   0.000  -0.000
  2.168  -1.661  -0.000   2.220   0.000  -0.000   0.204  -0.000
 -0.000   0.000  -0.000   0.000   0.811  -0.000   0.000   0.058
 -0.000   0.000   0.058  -0.000  -0.000   0.004  -0.000  -0.000
  0.385  -0.230   0.000   0.204   0.000  -0.000   0.028  -0.000
 -0.000   0.000  -0.000  -0.000   0.058  -0.000  -0.000   0.004


------------------------ aborting loop because EDIFF is reached ----------------------------------------


    FORLOC:  cpu time      0.0029: real time      0.0029
    FORNL :  cpu time      0.0027: real time      0.0028
    STRESS:  cpu time      0.0645: real time      0.0647
    FORCOR:  cpu time      1.4468: real time      1.4477
    OFIELD:  cpu time      0.0003: real time      0.0006

  FORCE on cell =-STRESS in cart. coord.  units (eV):
  Direction    XX          YY          ZZ          XY          YZ          ZX
  --------------------------------------------------------------------------------------
  Alpha Z     0.05171     0.05171     0.05171
  Ewald     -31.59412   -31.59412   265.08776     0.00000    -0.00000    -0.00000
  Hartree   193.84002   193.84002   295.76640     0.00000     0.00000     0.00000
  E(xc)     -45.61551   -45.61551   -43.55381     0.00000     0.00000     0.00000
  Local    -296.21114  -296.21114  -669.48812    -0.00000    -0.00000    -0.00000
  n-local   -18.17128   -18.17128   -29.26463    -0.00000    -0.00000     0.00000
  augment     6.40406     6.40406     5.83447     0.00000     0.00000     0.00000
  Kinetic   191.23657   191.23657   175.49345    -0.00000    -0.00000    -0.00000
  Fock        0.00000     0.00000     0.00000     0.00000     0.00000     0.00000
  -------------------------------------------------------------------------------------
  Total      -0.05968    -0.05968    -0.07277     0.00000    -0.00000    -0.00000
  in kB      -0.01132    -0.01132    -0.01380     0.00000    -0.00000    -0.00000
  external pressure =       -0.01 kB  Pullay stress =        0.00 kB


 VOLUME and BASIS-vectors are now :
 -----------------------------------------------------------------------------
  energy-cutoff  :      600.00
  volume of cell :     8450.53
      direct lattice vectors                 reciprocal lattice vectors
    20.000000000  0.000000000  0.000000000     0.050000000  0.000000000  0.000000000
     0.000000000 20.000000000  0.000000000     0.000000000  0.050000000  0.000000000
     0.000000000  0.000000000 21.126328287     0.000000000  0.000000000  0.047334302

  length of vectors
    20.000000000 20.000000000 21.126328287     0.050000000  0.050000000  0.047334302


 FORCES acting on ions:
    Electron-Ion                     Ewald-Force                    Non-Local-Force
 -----------------------------------------------------------------------------------------------
   0.174E-08 -.203E-08 0.235E+03   -.340E-18 0.104E-16 -.264E+03   0.710E-09 0.165E-08 0.283E+02
   0.427E-08 0.371E-08 -.204E+03   -.152E-16 -.244E-16 0.264E+03   0.102E-08 -.128E-08 -.595E+02
 -----------------------------------------------------------------------------------------------
   0.602E-08 0.166E-08 0.312E+02   -.156E-16 -.140E-16 0.000E+00   0.173E-08 0.368E-09 -.312E+02


 POSITION                                       TOTAL-FORCE (eV/Angst)
 -----------------------------------------------------------------------------------
     10.00000     10.00000      9.99098        -0.000000     -0.000000      0.000671
     10.00000     10.00000     11.13535         0.000000      0.000000     -0.000671
 -----------------------------------------------------------------------------------
    total drift:                                0.000000      0.000000      0.000761


--------------------------------------------------------------------------------------------------------



  FREE ENERGIE OF THE ION-ELECTRON SYSTEM (eV)
  ---------------------------------------------------
  free  energy   TOTEN  =       -11.35599697 eV

  energy  without entropy=      -11.35599697  energy(sigma->0) =      -11.35599697



--------------------------------------------------------------------------------------------------------


    POTLOK:  cpu time      1.5515: real time      1.5518


--------------------------------------------------------------------------------------------------------


 Finite differences:
   Step               POTIM =    1.0000000000000000E-002
   Degrees of freedom DOF   =            6
    WAVPRE:  cpu time      0.0132: real time      0.0204
    FEWALD:  cpu time      0.0004: real time      0.0004
    ORTHCH:  cpu time      0.0059: real time      0.0059
    POTLOK:  cpu time      1.5497: real time      1.5503
    EDDIAG:  cpu time      0.0560: real time      0.0560
    CHARGE:  cpu time      0.0435: real time      0.0435
     LOOP+:  cpu time     71.5637: real time     73.9438


--------------------------------------- Iteration      2(   1)  ---------------------------------------


    POTLOK:  cpu time      1.4816: real time      1.4819
    SETDIJ:  cpu time      0.0757: real time      0.0759
    TRIAL :  cpu time      0.0974: real time      0.0974
    CORREC:  cpu time      1.6491: real time      1.6495
    CHARGE:  cpu time      0.0430: real time      0.0430
    --------------------------------------------
      LOOP:  cpu time      3.3475: real time      3.3483

 eigenvalue-minimisations  :     0
 total energy-change (2. order) : 0.1731755E-01  (-0.1386788E-01)
 number of electron       9.9999999 magnetization
 augmentation part        0.6584882 magnetization

 DIPCOR: dipole corrections for dipol
 direction  1 min pos     1, direction  2 min pos     1, direction  3 min pos     1,
 dipolmoment           0.001441     -0.000000     -0.018092 electrons x Angstroem
 Tr[quadrupol]         5.376290

 energy correction for charged system         0.000000 eV
 dipol+quadrupol energy correction           -0.000001 eV
 added-field ion interaction          0.000123 eV  (added to PSCEN)


 Free energy of the ion-electron system (eV)
  ---------------------------------------------------
  alpha Z        PSCENC =         0.05182732
  Ewald energy   TEWEN  =       201.88799244
  -Hartree energ DENC   =      -683.50297791
  -exchange      EXHF   =         0.00000000
  -V(xc)+E(xc)   XCENC  =        39.75031568
  PAW double counting   =       836.37905203     -838.84821606
  entropy T*S    EENTRO =        -0.00000000
  eigenvalues    EBANDS =      -153.02333304
  atomic energy  EATOM  =       585.96666014
  ---------------------------------------------------
  free energy    TOTEN  =       -11.33867941 eV

  energy without entropy =      -11.33867941  energy(sigma->0) =      -11.33867941


--------------------------------------------------------------------------------------------------------




--------------------------------------- Iteration      2(   2)  ---------------------------------------


    POTLOK:  cpu time      1.4767: real time      1.4772
    SETDIJ:  cpu time      0.0760: real time      0.0760
    TRIAL :  cpu time      0.0979: real time      0.0979
    CORREC:  cpu time      1.6448: real time      1.6453
    CHARGE:  cpu time      0.0436: real time      0.0436
    --------------------------------------------
      LOOP:  cpu time      3.3434: real time      3.3539

 eigenvalue-minimisations  :     0
 total energy-change (2. order) :-0.1386281E-01  (-0.2552952E-02)
 number of electron       9.9999999 magnetization
 augmentation part        0.6588558 magnetization

 DIPCOR: dipole corrections for dipol
 direction  1 min pos     1, direction  2 min pos     1, direction  3 min pos     1,
 dipolmoment           0.005827     -0.000000     -0.018898 electrons x Angstroem
 Tr[quadrupol]         5.372691

 energy correction for charged system         0.000000 eV
 dipol+quadrupol energy correction           -0.000001 eV
 added-field ion interaction          0.000127 eV  (added to PSCEN)


 Free energy of the ion-electron system (eV)
  ---------------------------------------------------
  alpha Z        PSCENC =         0.05183034
  Ewald energy   TEWEN  =       201.88799244
  -Hartree energ DENC   =      -683.30447488
  -exchange      EXHF   =         0.00000000
  -V(xc)+E(xc)   XCENC  =        39.74013934
  PAW double counting   =       830.38915492     -832.85693326
  entropy T*S    EENTRO =        -0.00000000
  eigenvalues    EBANDS =      -153.22691128
  atomic energy  EATOM  =       585.96666014
  ---------------------------------------------------
  free energy    TOTEN  =       -11.35254223 eV

  energy without entropy =      -11.35254223  energy(sigma->0) =      -11.35254223


--------------------------------------------------------------------------------------------------------




--------------------------------------- Iteration      2(   3)  ---------------------------------------


    POTLOK:  cpu time      1.4772: real time      1.4776
    SETDIJ:  cpu time      0.0759: real time      0.0759
    TRIAL :  cpu time      0.0966: real time      0.0966
    CORREC:  cpu time      1.6440: real time      1.6448
    CHARGE:  cpu time      0.0431: real time      0.0431
    --------------------------------------------
      LOOP:  cpu time      3.3415: real time      3.3521

 eigenvalue-minimisations  :     0
 total energy-change (2. order) :-0.2552461E-02  (-0.6624751E-03)
 number of electron       9.9999999 magnetization
 augmentation part        0.6588706 magnetization

 DIPCOR: dipole corrections for dipol
 direction  1 min pos     1, direction  2 min pos     1, direction  3 min pos     1,
 dipolmoment           0.000683     -0.000000     -0.019105 electrons x Angstroem
 Tr[quadrupol]         5.374996

 energy correction for charged system         0.000000 eV
 dipol+quadrupol energy correction           -0.000001 eV
 added-field ion interaction          0.000130 eV  (added to PSCEN)


 Free energy of the ion-electron system (eV)
  ---------------------------------------------------
  alpha Z        PSCENC =         0.05183289
  Ewald energy   TEWEN  =       201.88799244
  -Hartree energ DENC   =      -683.49126723
  -exchange      EXHF   =         0.00000000
  -V(xc)+E(xc)   XCENC  =        39.75037014
  PAW double counting   =       830.21277758     -832.68117314
  entropy T*S    EENTRO =        -0.00000000
  eigenvalues    EBANDS =      -153.05228751
  atomic energy  EATOM  =       585.96666014
  ---------------------------------------------------
  free energy    TOTEN  =       -11.35509469 eV

  energy without entropy =      -11.35509469  energy(sigma->0) =      -11.35509469


--------------------------------------------------------------------------------------------------------




--------------------------------------- Iteration      2(   4)  ---------------------------------------


    POTLOK:  cpu time      1.4762: real time      1.4768
    SETDIJ:  cpu time      0.0759: real time      0.0759
    TRIAL :  cpu time      0.0965: real time      0.0965
    CORREC:  cpu time      1.6468: real time      1.6472
    CHARGE:  cpu time      0.0436: real time      0.0436
    --------------------------------------------
      LOOP:  cpu time      3.3435: real time      3.3539

 eigenvalue-minimisations  :     0
 total energy-change (2. order) :-0.6624354E-03  (-0.1671415E-03)
 number of electron       9.9999999 magnetization
 augmentation part        0.6587983 magnetization

 DIPCOR: dipole corrections for dipol
 direction  1 min pos     1, direction  2 min pos     1, direction  3 min pos     1,
 dipolmoment           0.001389     -0.000000     -0.019054 electrons x Angstroem
 Tr[quadrupol]         5.375201

 energy correction for charged system         0.000000 eV
 dipol+quadrupol energy correction           -0.000001 eV
 added-field ion interaction          0.000130 eV  (added to PSCEN)


 Free energy of the ion-electron system (eV)
  ---------------------------------------------------
  alpha Z        PSCENC =         0.05183561
  Ewald energy   TEWEN  =       201.88799244
  -Hartree energ DENC   =      -683.45152660
  -exchange      EXHF   =         0.00000000
  -V(xc)+E(xc)   XCENC  =        39.74822122
  PAW double counting   =       830.18604514     -832.65472985
  entropy T*S    EENTRO =        -0.00000000
[...]


--------------------------------------------------------------------------------------------------------




--------------------------------------- Iteration     13(  12)  ---------------------------------------


    POTLOK:  cpu time      1.4798: real time      1.4800
    SETDIJ:  cpu time      0.0759: real time      0.0759
    TRIAL :  cpu time      0.0970: real time      0.0970
    CORREC:  cpu time      1.6443: real time      1.6445
    CHARGE:  cpu time      0.0432: real time      0.0432
    --------------------------------------------
      LOOP:  cpu time      3.3539: real time      3.3544

 eigenvalue-minimisations  :     0
 total energy-change (2. order) :-0.5413934E-06  (-0.1128530E-06)
 number of electron       9.9999998 magnetization
 augmentation part        0.6642296 magnetization

 DIPCOR: dipole corrections for dipol
 direction  1 min pos     1, direction  2 min pos     1, direction  3 min pos     1,
 dipolmoment           0.000000      0.000000     -0.025797 electrons x Angstroem
 Tr[quadrupol]         5.364814

 energy correction for charged system         0.000000 eV
 dipol+quadrupol energy correction           -0.000002 eV
 added-field ion interaction          0.000167 eV  (added to PSCEN)


 Free energy of the ion-electron system (eV)
  ---------------------------------------------------
  alpha Z        PSCENC =         0.05187276
  Ewald energy   TEWEN  =       204.56009366
  -Hartree energ DENC   =      -685.58312876
  -exchange      EXHF   =         0.00000000
  -V(xc)+E(xc)   XCENC  =        39.82563160
  PAW double counting   =       847.12049087     -849.60196794
  entropy T*S    EENTRO =        -0.00000000
  eigenvalues    EBANDS =      -153.68995319
  atomic energy  EATOM  =       585.96666014
  ---------------------------------------------------
  free energy    TOTEN  =       -11.35030087 eV

  energy without entropy =      -11.35030087  energy(sigma->0) =      -11.35030087


--------------------------------------------------------------------------------------------------------




--------------------------------------- Iteration     13(  13)  ---------------------------------------


    POTLOK:  cpu time      1.4810: real time      1.4811
    SETDIJ:  cpu time      0.0758: real time      0.0759
    TRIAL :  cpu time      0.0965: real time      0.0965
    CORREC:  cpu time      1.6472: real time      1.6474
    CHARGE:  cpu time      0.0427: real time      0.0427
    --------------------------------------------
      LOOP:  cpu time      3.3494: real time      3.3582

 eigenvalue-minimisations  :     0
 total energy-change (2. order) :-0.1128847E-06  (-0.2119485E-07)
 number of electron       9.9999998 magnetization
 augmentation part        0.6642301 magnetization

 DIPCOR: dipole corrections for dipol
 direction  1 min pos     1, direction  2 min pos     1, direction  3 min pos     1,
 dipolmoment           0.000000      0.000000     -0.025796 electrons x Angstroem
 Tr[quadrupol]         5.364839

 energy correction for charged system         0.000000 eV
 dipol+quadrupol energy correction           -0.000002 eV
 added-field ion interaction          0.000167 eV  (added to PSCEN)


 Free energy of the ion-electron system (eV)
  ---------------------------------------------------
  alpha Z        PSCENC =         0.05187272
  Ewald energy   TEWEN  =       204.56009366
  -Hartree energ DENC   =      -685.58373813
  -exchange      EXHF   =         0.00000000
  -V(xc)+E(xc)   XCENC  =        39.82566646
  PAW double counting   =       847.10584430     -849.58735299
  entropy T*S    EENTRO =        -0.00000000
  eigenvalues    EBANDS =      -153.68934713
  atomic energy  EATOM  =       585.96666014
  ---------------------------------------------------
  free energy    TOTEN  =       -11.35030098 eV

  energy without entropy =      -11.35030098  energy(sigma->0) =      -11.35030098


--------------------------------------------------------------------------------------------------------




--------------------------------------- Iteration     13(  14)  ---------------------------------------


    POTLOK:  cpu time      1.4800: real time      1.4801
    SETDIJ:  cpu time      0.0759: real time      0.0759
    TRIAL :  cpu time      0.0971: real time      0.0971
    CORREC:  cpu time      1.6462: real time      1.6468
    CHARGE:  cpu time      0.0431: real time      0.0432
    --------------------------------------------
      LOOP:  cpu time      3.3565: real time      3.3577

 eigenvalue-minimisations  :     0
 total energy-change (2. order) :-0.1922268E-07  (-0.7420485E-08)
 number of electron       9.9999998 magnetization
 augmentation part        0.6642304 magnetization

 DIPCOR: dipole corrections for dipol
 direction  1 min pos     1, direction  2 min pos     1, direction  3 min pos     1,
 dipolmoment           0.000000      0.000000     -0.025797 electrons x Angstroem
 Tr[quadrupol]         5.364842

 energy correction for charged system         0.000000 eV
 dipol+quadrupol energy correction           -0.000002 eV
 added-field ion interaction          0.000167 eV  (added to PSCEN)


 Free energy of the ion-electron system (eV)
  ---------------------------------------------------
  alpha Z        PSCENC =         0.05187271
  Ewald energy   TEWEN  =       204.56009366
  -Hartree energ DENC   =      -685.58320019
  -exchange      EXHF   =         0.00000000
  -V(xc)+E(xc)   XCENC  =        39.82563686
  PAW double counting   =       847.09786037     -849.57937856
  entropy T*S    EENTRO =        -0.00000000
  eigenvalues    EBANDS =      -153.68984598
  atomic energy  EATOM  =       585.96666014
  ---------------------------------------------------
  free energy    TOTEN  =       -11.35030100 eV

  energy without entropy =      -11.35030100  energy(sigma->0) =      -11.35030100


--------------------------------------------------------------------------------------------------------




--------------------------------------- Iteration     13(  15)  ---------------------------------------


    POTLOK:  cpu time      1.4784: real time      1.4785
    SETDIJ:  cpu time      0.0758: real time      0.0758
    TRIAL :  cpu time      0.0970: real time      0.0970
    CORREC:  cpu time      1.6459: real time      1.6460
    EDDIAG:  cpu time      0.0530: real time      0.0530
    CHARGE:  cpu time      0.0440: real time      0.0440
    --------------------------------------------
      LOOP:  cpu time      3.3998: real time      3.4089

 eigenvalue-minimisations  :     0
 total energy-change (2. order) :-0.6233506E-08  (-0.8059262E-08)
 number of electron       9.9999998 magnetization
 augmentation part        0.6642306 magnetization

 DIPCOR: dipole corrections for dipol
 direction  1 min pos     1, direction  2 min pos     1, direction  3 min pos     1,
 dipolmoment           0.000000      0.000000     -0.025797 electrons x Angstroem
 Tr[quadrupol]         5.364836

 energy correction for charged system         0.000000 eV
 dipol+quadrupol energy correction           -0.000002 eV
 added-field ion interaction          0.000167 eV  (added to PSCEN)


 Free energy of the ion-electron system (eV)
  ---------------------------------------------------
  alpha Z        PSCENC =         0.05187271
  Ewald energy   TEWEN  =       204.56009366
  -Hartree energ DENC   =      -685.58305604
  -exchange      EXHF   =         0.00000000
  -V(xc)+E(xc)   XCENC  =        39.82562878
  PAW double counting   =       847.09229933     -849.57382262
  entropy T*S    EENTRO =        -0.00000000
  eigenvalues    EBANDS =      -153.68997697
  atomic energy  EATOM  =       585.96666014
  ---------------------------------------------------
  free energy    TOTEN  =       -11.35030101 eV

  energy without entropy =      -11.35030101  energy(sigma->0) =      -11.35030101


--------------------------------------------------------------------------------------------------------


  average scaling for gradient   1.9835


 average (electrostatic) potential at core
  the test charge radii are     0.6991  0.7215
  (the norm of the test charge is              1.0000)
       1 -61.8562       2 -83.9760



 E-fermi :  -8.9792     XC(G=0):  -0.1099     alpha+bet : -0.0207

 Fermi energy:        -8.9792302950

 k-point     1 :       0.0000    0.0000    0.0000
  band No.  band energies     occupation
      1     -29.5425      2.00000
      2     -14.2094      2.00000
      3     -11.9010      2.00000
      4     -11.9010      2.00000
      5      -9.2909      2.00000
      6      -2.2281      0.00000
      7      -2.2281      0.00000
      8      -0.4131      0.00000
      9       0.0753      0.00000
     10       0.1650      0.00000
     11       0.2311      0.00000
     12       0.2311      0.00000
     13       0.3488      0.00000
     14       0.3712      0.00000
     15       0.4769      0.00000
     16       0.5322      0.00000
     17       0.5322      0.00000
     18       0.5541      0.00000
     19       0.6904      0.00000
     20       0.6904      0.00000
     21       0.7012      0.00000
     22       0.7161      0.00000
     23       0.7193      0.00000
     24       0.7314      0.00000
     25       0.7372      0.00000
     26       0.7372      0.00000
     27       0.9367      0.00000
     28       0.9721      0.00000
     29       0.9721      0.00000
     30       1.0172      0.00000
     31       1.0416      0.00000
     32       1.0530      0.00000
     33       1.0530      0.00000
     34       1.0841      0.00000
     35       1.2131      0.00000
     36       1.2478      0.00000
     37       1.3355      0.00000
     38       1.3355      0.00000
     39       1.3626      0.00000
     40       1.4460      0.00000
     41       1.4844      0.00000
     42       1.5545      0.00000
     43       1.5971      0.00000
     44       1.5971      0.00000
     45       1.6468      0.00000
     46       1.6468      0.00000
     47       1.6737      0.00000
     48       1.6747      0.00000
     49       1.7202      0.00000
     50       1.7257      0.00000
     51       1.7257      0.00000
     52       1.7399      0.00000
     53       1.7597      0.00000
     54       1.8010      0.00000
     55       1.8025      0.00000
     56       1.8025      0.00000
     57       1.8206      0.00000
     58       1.8432      0.00000
     59       1.8432      0.00000
     60       1.8558      0.00000
     61       1.8731      0.00000
     62       1.8756      0.00000
     63       1.8756      0.00000
     64       1.8801      0.00000


--------------------------------------------------------------------------------------------------------


 soft charge-density along one line, spin component           1
         0         1         2         3         4         5         6         7         8         9
 total charge-density along one line

 pseudopotential strength for first ion, spin component:           1
 10.449  13.899   0.000   0.023  -0.000  -0.000  -0.068   0.000
 13.899  18.487   0.000   0.030  -0.000  -0.000  -0.088   0.000
  0.000   0.000  -4.515   0.000   0.000   8.879  -0.000  -0.000
  0.023   0.030   0.000  -4.505   0.000  -0.000   8.819  -0.000
 -0.000  -0.000   0.000   0.000  -4.515  -0.000  -0.000   8.879
 -0.000  -0.000   8.879  -0.000  -0.000 -19.608   0.000   0.000
 -0.068  -0.088  -0.000   8.819  -0.000   0.000 -19.412   0.000
  0.000   0.000  -0.000  -0.000   8.879   0.000   0.000 -19.608
 total augmentation occupancy for first ion, spin component:           1
  7.239  -3.321  -0.000   2.241   0.000  -0.000   0.398  -0.000
 -3.321   1.960   0.000  -1.704  -0.000   0.000  -0.238   0.000
 -0.000   0.000   0.825   0.000  -0.000   0.060  -0.000  -0.000
  2.241  -1.704   0.000   2.255   0.000  -0.000   0.208  -0.000
  0.000  -0.000  -0.000   0.000   0.825  -0.000  -0.000   0.060
 -0.000   0.000   0.060  -0.000  -0.000   0.004  -0.000  -0.000
  0.398  -0.238  -0.000   0.208  -0.000  -0.000   0.029  -0.000
 -0.000   0.000  -0.000  -0.000   0.060  -0.000  -0.000   0.004


------------------------ aborting loop because EDIFF is reached ----------------------------------------


    FORLOC:  cpu time      0.0027: real time      0.0027
    FORNL :  cpu time      0.0022: real time      0.0022
    STRESS:  cpu time      0.0641: real time      0.0641
    FORCOR:  cpu time      1.4445: real time      1.4446
    OFIELD:  cpu time      0.0002: real time      0.0002

  FORCE on cell =-STRESS in cart. coord.  units (eV):
  Direction    XX          YY          ZZ          XY          YZ          ZX
  --------------------------------------------------------------------------------------
  Alpha Z     0.05171     0.05171     0.05171
  Ewald     -31.59290   -31.59290   267.74586    -0.00000    -0.00000     0.00000
  Hartree   194.63831   194.63831   296.30697    -0.00000     0.00000    -0.00000
  E(xc)     -45.69908   -45.69908   -43.63035    -0.00000    -0.00000    -0.00000
  Local    -297.22946  -297.22946  -671.53554     0.00000    -0.00000     0.00000
  n-local   -18.30576   -18.30576   -29.54271    -0.00000    -0.00000    -0.00000
  augment     6.42060     6.42060     5.77653     0.00000     0.00000    -0.00000
  Kinetic   191.65592   191.65592   176.06341     0.00000     0.00000     0.00000
  Fock        0.00000     0.00000     0.00000     0.00000     0.00000     0.00000
  -------------------------------------------------------------------------------------
  Total      -0.06065    -0.06065     1.23589     0.00000     0.00000    -0.00000
  in kB      -0.01150    -0.01150     0.23432     0.00000     0.00000    -0.00000
  external pressure =        0.07 kB  Pullay stress =        0.00 kB


 VOLUME and BASIS-vectors are now :
 -----------------------------------------------------------------------------
  energy-cutoff  :      600.00
  volume of cell :     8450.53
      direct lattice vectors                 reciprocal lattice vectors
    20.000000000  0.000000000  0.000000000     0.050000000  0.000000000  0.000000000
     0.000000000 20.000000000  0.000000000     0.000000000  0.050000000  0.000000000
     0.000000000  0.000000000 21.126328287     0.000000000  0.000000000  0.047334302

  length of vectors
    20.000000000 20.000000000 21.126328287     0.050000000  0.050000000  0.047334302


 FORCES acting on ions:
    Electron-Ion                     Ewald-Force                    Non-Local-Force
 -----------------------------------------------------------------------------------------------
   0.229E-08 0.539E-08 0.239E+03   0.440E-16 0.503E-16 -.268E+03   0.114E-09 -.130E-07 0.283E+02
   0.297E-08 -.102E-06 -.207E+03   -.593E-16 -.641E-16 0.268E+03   -.190E-09 0.804E-07 -.602E+02
 -----------------------------------------------------------------------------------------------
   0.526E-08 -.963E-07 0.319E+02   -.153E-16 -.137E-16 0.000E+00   -.759E-10 0.674E-07 -.319E+02


 POSITION                                       TOTAL-FORCE (eV/Angst)
 -----------------------------------------------------------------------------------
     10.00000     10.00000      9.99098        -0.000000      0.000000     -1.154017
     10.00000     10.00000     11.12535         0.000000     -0.000000      1.154017
 -----------------------------------------------------------------------------------
    total drift:                                0.000000     -0.000000     -0.000046


--------------------------------------------------------------------------------------------------------



  FREE ENERGIE OF THE ION-ELECTRON SYSTEM (eV)
  ---------------------------------------------------
  free  energy   TOTEN  =       -11.35030101 eV

  energy  without entropy=      -11.35030101  energy(sigma->0) =      -11.35030101

 d Force =-0.7848477E-03[-0.231E-01, 0.215E-01]  d Energy =-0.2487745E-03-0.536E-03
 d Force =-0.5275828E+01[-0.537E+01,-0.518E+01]  d Ewald  =-0.5275022E+01-0.806E-03


--------------------------------------------------------------------------------------------------------


    POTLOK:  cpu time      1.5536: real time      1.5537


--------------------------------------------------------------------------------------------------------


 Finite differences progress:
  Degree of freedom:   6/  6
  Displacement:        2/  2
  Total:              12/ 12

 SECOND DERIVATIVES (NOT SYMMETRIZED)
 ------------------------------------
               1X          1Y          1Z          2X          2Y          2Z
  1X    -0.004349   -0.000000    0.001024    0.004349    0.000000   -0.001024
  1Y    -0.000899   -0.004225    0.000426    0.000899    0.004225   -0.000426
  1Z    -0.000000    0.000309 -111.512775    0.000000   -0.000309  111.512775
  2X     0.001247    0.000000    0.004028   -0.001247   -0.000000   -0.004028
  2Y     0.000427   -0.004709    0.000175   -0.000427    0.004709   -0.000175
  2Z     0.000000   -0.004144  111.477497   -0.000000    0.004144 -111.477497


 Eigenvectors and eigenvalues of the dynamical matrix
 ----------------------------------------------------


   1 f  =   63.022890 THz   395.984495 2PiTHz 2102.217318 cm-1   260.641612 meV
             X         Y         Z           dx          dy          dz
     10.000000 10.000000  9.990979    -0.000003   -0.000008    0.755832
     10.000000 10.000000 11.135349    -0.000012    0.000005   -0.654766

   2 f  =    0.345302 THz     2.169594 2PiTHz   11.518021 cm-1     1.428052 meV
             X         Y         Z           dx          dy          dz
     10.000000 10.000000  9.990979     0.809239    0.389620    0.057679
     10.000000 10.000000 11.135349    -0.430065   -0.024761    0.066580

   3 f  =    0.296877 THz     1.865332 2PiTHz    9.902742 cm-1     1.227783 meV
             X         Y         Z           dx          dy          dz
     10.000000 10.000000  9.990979     0.366289   -0.880304   -0.167094
     10.000000 10.000000 11.135349    -0.160550   -0.000036   -0.192874

   4 f/i=    0.004516 THz     0.028377 2PiTHz    0.150648 cm-1     0.018678 meV
             X         Y         Z           dx          dy          dz
     10.000000 10.000000  9.990979    -0.039560    0.257783   -0.600552
     10.000000 10.000000 11.135349    -0.045906    0.297688   -0.693249

   5 f/i=    0.081425 THz     0.511609 2PiTHz    2.716048 cm-1     0.336747 meV
             X         Y         Z           dx          dy          dz
     10.000000 10.000000  9.990979     0.457295    0.040572   -0.027140
     10.000000 10.000000 11.135349     0.886745    0.034625   -0.031348

   6 f/i=    0.281348 THz     1.767764 2PiTHz    9.384772 cm-1     1.163563 meV
             X         Y         Z           dx          dy          dz
     10.000000 10.000000  9.990979    -0.016769    0.071853   -0.189926
     10.000000 10.000000 11.135349     0.029037   -0.953714   -0.219251

 Finite differences POTIM=   1.0000000000000000E-002
     LOOP+:  cpu time     53.4703: real time     55.7916
    4ORBIT:  cpu time      0.0000: real time      0.0000

 total amount of memory used by VASP MPI-rank0    79043. kBytes
=======================================================================

   base      :      30000. kBytes
   nonl-proj :       2826. kBytes
   fftplans  :      15799. kBytes
   grid      :      29568. kBytes
   one-center:          1. kBytes
   wavefun   :        849. kBytes



 General timing and accounting informations for this job:
 ========================================================

                  Total CPU time used (sec):      746.244
                            User time (sec):      738.098
                          System time (sec):        8.146
                         Elapsed time (sec):      764.456

                   Maximum memory used (kb):      324820.
                   Average memory used (kb):          N/A

                          Minor page faults:       708724
                          Major page faults:            0
                 Voluntary context switches:        19370
