 vasp.6.3.0 20Jan22 (build Dec 25 2023 18:06:01) complex                         
 executed on        HPECrayEX_GCC date 2024.01.26  04:13:52
 running  512 mpi-ranks, with    1 threads/rank
 distrk:  each k-point on  512 cores,    1 groups
 distr:  one band on NCORE=   8 cores,   64 groups


--------------------------------------------------------------------------------------------------------


 INCAR:
   SYSTEM = MgO-rocksalt
   ISMEAR = 0
   SIGMA = 0.05
   EDIFF = 1E-5
   ALGO = ALL
   ISTART = 0
   IBRION = -1
   NSW = 0
   ISYM = 2
   ISIF = 2
   DIPOL = 0.5 0.5 0.5
   IDIPOL = 3
   LDIPOL = .TRUE.
   LHFCALC = .TRUE.
   GGA = PE
   IVDW = 13
   VDW_S8 = 1.2007
   VDW_A1 = 0.4009
   VDW_A2 = 5.0293
   ENCUT = 600
   PREC = Accurate
   LASPH = .TRUE.
   LREAL = .FALSE.
   ISPIN = 1
   NELM = 200
   NELMIN = 8
   NCORE = 8
   KPAR = 1
   LWAVE = .FALSE.
   LCHARG = .FALSE.

 POTCAR:    PAW_PBE C 08Apr2002                   
 POTCAR:    PAW_PBE O 08Apr2002                   
 -----------------------------------------------------------------------------
|                                                                             |
|           W    W    AA    RRRRR   N    N  II  N    N   GGGG   !!!           |
|           W    W   A  A   R    R  NN   N  II  NN   N  G    G  !!!           |
|           W    W  A    A  R    R  N N  N  II  N N  N  G       !!!           |
|           W WW W  AAAAAA  RRRRR   N  N N  II  N  N N  G  GGG   !            |
|           WW  WW  A    A  R   R   N   NN  II  N   NN  G    G                |
|           W    W  A    A  R    R  N    N  II  N    N   GGGG   !!!           |
|                                                                             |
|     You have selected ISYM=2 for a HF type calculation. This will           |
|     symmetrize the charge density but not the exchange potential. I         |
|     suggest to use ISYM=3 instead. This uses symmetry to obtain the         |
|     orbitals at all k-points in the Brillouin zone, but does not apply      |
|     symmetry to the Hartree potential directly. The resultant charge        |
|     might have lower symmetry than the crystal but, at least, Hartree       |
|     and exchange are fully compatible.                                      |
|                                                                             |
 -----------------------------------------------------------------------------

 POTCAR:    PAW_PBE C 08Apr2002                   
   SHA256 =  253f7b50bb8d59471dbedb8285d89021f4a42ed1a2c5d38a03a736e69125dd95 C/POTCAR              
   COPYR  = (c) Copyright 08Apr2002 Georg Kresse                                                    
   COPYR  = This file is part of the software VASP. Any use, copying, and all other rights are regul
   COPYR  = If you do not have a valid VASP license, you may not use, copy or distribute this file. 
   VRHFIN =C: s2p2                                                                                  
   LEXCH  = PE                                                                                      
   EATOM  =   147.1560 eV,   10.8157 Ry                                                             
                                                                                                    
   TITEL  = PAW_PBE C 08Apr2002                                                                     
   LULTRA =        F    use ultrasoft PP ?                                                          
   IUNSCR =        1    unscreen: 0-lin 1-nonlin 2-no                                               
   RPACOR =    1.200    partial core radius                                                         
   POMASS =   12.011; ZVAL   =    4.000    mass and valenz                                          
   RCORE  =    1.500    outmost cutoff radius                                                       
   RWIGS  =    1.630; RWIGS  =    0.863    wigner-seitz radius (au A)                               
   ENMAX  =  400.000; ENMIN  =  300.000 eV                                                          
   ICORE  =        2    local potential                                                             
   LCOR   =        T    correct aug charges                                                         
   LPAW   =        T    paw PP                                                                      
   EAUG   =  644.873                                                                                
   DEXC   =    0.000                                                                                
   RMAX   =    1.529    core radius for proj-oper                                                   
   RAUG   =    1.300    factor for augmentation sphere                                              
   RDEP   =    1.501    radius for radial grids                                                     
   RDEPT  =    1.300    core radius for aug-charge                                                  
                                                                                                    
   Atomic configuration                                                                             
    4 entries                                                                                       
     n  l   j            E        occ.                                                              
     1  0  0.50      -273.3789   2.0000                                                             
     2  0  0.50       -13.7508   2.0000                                                             
     2  1  0.50        -5.2854   2.0000                                                             
     3  2  1.50        -5.4423   0.0000                                                             
   Description                                                                                      
     l       E           TYP  RCUT    TYP  RCUT                                                     
     0    -13.7508458     23  1.200                                                                 
     0     -8.2022199     23  1.200                                                                 
     1     -5.2854383     23  1.500                                                                 
     1     34.0145650     23  1.500                                                                 
     2     -5.4423304      7  1.500                                                                 
  local pseudopotential read in
  partial core-charges read in
  partial kinetic energy density read in
  atomic valenz-charges read in
  non local Contribution for L=           0  read in
    real space projection operators read in
  non local Contribution for L=           0  read in
    real space projection operators read in
  non local Contribution for L=           1  read in
    real space projection operators read in
  non local Contribution for L=           1  read in
    real space projection operators read in
    PAW grid and wavefunctions read in

   number of l-projection  operators is LMAX  =           4
   number of lm-projection operators is LMMAX =           8

 POTCAR:    PAW_PBE O 08Apr2002                   
   SHA256 =  818f92134a0a090dccd8ba1447fa70422a3b330e708bb4f08108d8ae51209ddf O/POTCAR              
   COPYR  = (c) Copyright 08Apr2002 Georg Kresse                                                    
   COPYR  = This file is part of the software VASP. Any use, copying, and all other rights are regul
   COPYR  = If you do not have a valid VASP license, you may not use, copy or distribute this file. 
   VRHFIN =O: s2p4                                                                                  
   LEXCH  = PE                                                                                      
   EATOM  =   432.3788 eV,   31.7789 Ry                                                             
                                                                                                    
   TITEL  = PAW_PBE O 08Apr2002                                                                     
   LULTRA =        F    use ultrasoft PP ?                                                          
   IUNSCR =        1    unscreen: 0-lin 1-nonlin 2-no                                               
   RPACOR =    1.200    partial core radius                                                         
   POMASS =   16.000; ZVAL   =    6.000    mass and valenz                                          
   RCORE  =    1.520    outmost cutoff radius                                                       
   RWIGS  =    1.550; RWIGS  =    0.820    wigner-seitz radius (au A)                               
   ENMAX  =  400.000; ENMIN  =  300.000 eV                                                          
   ICORE  =        2    local potential                                                             
   LCOR   =        T    correct aug charges                                                         
   LPAW   =        T    paw PP                                                                      
   EAUG   =  605.392                                                                                
   DEXC   =    0.000                                                                                
   RMAX   =    1.553    core radius for proj-oper                                                   
   RAUG   =    1.300    factor for augmentation sphere                                              
   RDEP   =    1.550    radius for radial grids                                                     
   RDEPT  =    1.329    core radius for aug-charge                                                  
                                                                                                    
   Atomic configuration                                                                             
    4 entries                                                                                       
     n  l   j            E        occ.                                                              
     1  0  0.50      -514.6923   2.0000                                                             
     2  0  0.50       -23.9615   2.0000                                                             
     2  1  0.50        -9.0305   4.0000                                                             
     3  2  1.50        -9.5241   0.0000                                                             
   Description                                                                                      
     l       E           TYP  RCUT    TYP  RCUT                                                     
     0    -23.9615318     23  1.200                                                                 
     0     -9.5240782     23  1.200                                                                 
     1     -9.0304911     23  1.520                                                                 
     1      8.1634956     23  1.520                                                                 
     2     -9.5240782      7  1.500                                                                 
  local pseudopotential read in
  partial core-charges read in
  partial kinetic energy density read in
  kinetic energy density of atom read in
  atomic valenz-charges read in
  non local Contribution for L=           0  read in
    real space projection operators read in
  non local Contribution for L=           0  read in
    real space projection operators read in
  non local Contribution for L=           1  read in
    real space projection operators read in
  non local Contribution for L=           1  read in
    real space projection operators read in
    PAW grid and wavefunctions read in

   number of l-projection  operators is LMAX  =           4
   number of lm-projection operators is LMMAX =           8

  PAW_PBE C 08Apr2002                   :
 energy of atom  1       EATOM= -147.1560
 kinetic energy error for atom=    0.0057 (will be added to EATOM!!)
  PAW_PBE O 08Apr2002                   :
 energy of atom  2       EATOM= -432.3788
 kinetic energy error for atom=    0.0168 (will be added to EATOM!!)


 POSCAR:  C  O
  positions in direct lattice
  No initial velocities read in
 -----------------------------------------------------------------------------
|                                                                             |
|           W    W    AA    RRRRR   N    N  II  N    N   GGGG   !!!           |
|           W    W   A  A   R    R  NN   N  II  NN   N  G    G  !!!           |
|           W    W  A    A  R    R  N N  N  II  N N  N  G       !!!           |
|           W WW W  AAAAAA  RRRRR   N  N N  II  N  N N  G  GGG   !            |
|           WW  WW  A    A  R   R   N   NN  II  N   NN  G    G                |
|           W    W  A    A  R    R  N    N  II  N    N   GGGG   !!!           |
|                                                                             |
|     Specifying the vdW parameters                                           |
|     VDW_S8 = 1.201                                                          |
|     VDW_A1 = 0.401                                                          |
|     VDW_A2 = 5.029                                                          |
|     in the INCAR file will overwrite the defaults for pbe0. Please make     |
|     sure that is what you intended.                                         |
|                                                                             |
 -----------------------------------------------------------------------------

 exchange correlation table for  LEXCH =        8
   RHO(1)=    0.500       N(1)  =     2000
   RHO(2)=  100.500       N(2)  =     4000



--------------------------------------------------------------------------------------------------------


 ion  position               nearest neighbor table
   1  0.500  0.500  0.765-   2 1.15
   2  0.500  0.500  0.819-   1 1.15

  LATTYP: Found a simple tetragonal cell.
 ALAT       =     8.4409846542
 C/A-ratio  =     2.5270438657
  
  Lattice vectors:
  
 A1 = (   8.4409846542,   0.0000000000,   0.0000000000)
 A2 = (   0.0000000000,   8.4409846542,   0.0000000000)
 A3 = (   0.0000000000,   0.0000000000,  21.3307384906)


Analysis of symmetry for initial positions (statically):
=====================================================================
 Subroutine PRICEL returns:
 Original cell was already a primitive cell.
 

 Routine SETGRP: Setting up the symmetry group for a 
 simple tetragonal supercell.


 Subroutine GETGRP returns: Found  8 space group operations
 (whereof  8 operations were pure point group operations)
 out of a pool of 16 trial point group operations.


The static configuration has the point symmetry C_4v.


Analysis of symmetry for dynamics (positions and initial velocities):
=====================================================================
 Subroutine PRICEL returns:
 Original cell was already a primitive cell.
 

 Routine SETGRP: Setting up the symmetry group for a 
 simple tetragonal supercell.


 Subroutine GETGRP returns: Found  8 space group operations
 (whereof  8 operations were pure point group operations)
 out of a pool of 16 trial point group operations.


The dynamic configuration has the point symmetry C_4v.


 Subroutine INISYM returns: Found  8 space group operations
 (whereof  8 operations are pure point group operations),
 and found     1 'primitive' translations


----------------------------------------------------------------------------------------

                                     Primitive cell                                     

  volume of cell :    1519.8199

  direct lattice vectors                    reciprocal lattice vectors
     8.440984654  0.000000000  0.000000000     0.118469591  0.000000000  0.000000000
     0.000000000  8.440984654  0.000000000     0.000000000  0.118469591  0.000000000
     0.000000000  0.000000000 21.330738491     0.000000000  0.000000000  0.046880702

  length of vectors
     8.440984654  8.440984654 21.330738491     0.118469591  0.118469591  0.046880702

  position of ions in fractional coordinates (direct lattice)
     0.500000000  0.500000000  0.765053803
     0.500000000  0.500000000  0.818817521

  ion indices of the primitive-cell ions
   primitive index   ion index
                 1           1
                 2           2

----------------------------------------------------------------------------------------



 KPOINTS: pymatgen v2020.8.13 with grid density = 

Automatic generation of k-mesh.
 Grid dimensions read from file:
 generate k-points for:    2    2    1

 Generating k-lattice:

  Cartesian coordinates                     Fractional coordinates (reciprocal lattice)
     0.059234796  0.000000000  0.000000000     0.500000000  0.000000000  0.000000000
     0.000000000  0.059234796  0.000000000     0.000000000  0.500000000  0.000000000
     0.000000000  0.000000000  0.046880702     0.000000000  0.000000000  1.000000000

  Length of vectors
     0.059234796  0.059234796  0.046880702

  Shift w.r.t. Gamma in fractional coordinates (k-lattice)
     0.000000000  0.000000000  0.000000000

 
 Subroutine IBZKPT returns following result:
 ===========================================
 
 Found      3 irreducible k-points:
 
 Following reciprocal coordinates:
            Coordinates               Weight
  0.000000  0.000000  0.000000      1.000000
  0.500000  0.000000  0.000000      2.000000
  0.500000  0.500000  0.000000      1.000000
 
 Following cartesian coordinates:
            Coordinates               Weight
  0.000000  0.000000  0.000000      1.000000
  0.059235  0.000000  0.000000      2.000000
  0.059235  0.059235  0.000000      1.000000
 
 
 Subroutine IBZKPT_HF returns following result:
 ==============================================
 
 Found      4 k-points in 1st BZ
 the following      4 k-points will be used (e.g. in the exchange kernel)
 Following reciprocal coordinates:   # in IRBZ
  0.000000  0.000000  0.000000    0.25000000   1 t-inv F
  0.500000  0.000000  0.000000    0.25000000   2 t-inv F
  0.500000  0.500000  0.000000    0.25000000   3 t-inv F
 -0.000000  0.500000  0.000000    0.25000000   2 t-inv F


--------------------------------------------------------------------------------------------------------




 Dimension of arrays:
   k-points           NKPTS =      3   k-points in BZ     NKDIM =      4   number of bands    NBANDS=     64
   number of dos      NEDOS =    301   number of ions     NIONS =      2
   non local maximal  LDIM  =      4   non local SUM 2l+1 LMDIM =      8
   total plane-waves  NPLWV = 882000
   max r-space proj   IRMAX =      1   max aug-charges    IRDMAX=   7728
   dimension x,y,z NGX =    70 NGY =   70 NGZ =  180
   dimension x,y,z NGXF=   140 NGYF=  140 NGZF=  360
   support grid    NGXF=   140 NGYF=  140 NGZF=  360
   ions per type =               1   1
   NGX,Y,Z   is equivalent  to a cutoff of  13.79, 13.79, 14.03 a.u.
   NGXF,Y,Z  is equivalent  to a cutoff of  27.57, 27.57, 28.06 a.u.

 SYSTEM =  MgO-rocksalt                            
 POSCAR =   C  O                                   

 Startparameter for this run:
   NWRITE =      2    write-flag & timer
   PREC   = accura    normal or accurate (medium, high low for compatibility)
   ISTART =      0    job   : 0-new  1-cont  2-samecut
   ICHARG =      2    charge: 1-file 2-atom 10-const
   ISPIN  =      1    spin polarized calculation?
   LNONCOLLINEAR =      F non collinear calculations
   LSORBIT =      F    spin-orbit coupling
   INIWAV =      1    electr: 0-lowe 1-rand  2-diag
   LASPH  =      T    aspherical Exc in radial PAW
 Electronic Relaxation 1
   ENCUT  =  600.0 eV  44.10 Ry    6.64 a.u.  16.86 16.86 42.60*2*pi/ulx,y,z
   ENINI  =  600.0     initial cutoff
   ENAUG  =  644.9 eV  augmentation charge cutoff
   NELM   =    200;   NELMIN=  8; NELMDL= -5     # of ELM steps 
   EDIFF  = 0.1E-04   stopping-criterion for ELM
   LREAL  =      F    real-space projection
   NLSPLINE    = F    spline interpolate recip. space projectors
   LCOMPAT=      F    compatible to vasp.4.4
   GGA_COMPAT  = T    GGA compatible to vasp.4.4-vasp.4.6
   LMAXPAW     = -100 max onsite density
   LMAXMIX     =    2 max onsite mixed and CHGCAR
   VOSKOWN=      0    Vosko Wilk Nusair interpolation
   ROPT   =    0.00000   0.00000
 Ionic relaxation
   EDIFFG = 0.1E-03   stopping-criterion for IOM
   NSW    =      0    number of steps for IOM
   NBLOCK =      1;   KBLOCK =      1    inner block; outer block 
   IBRION =     -1    ionic relax: 0-MD 1-quasi-New 2-CG
   NFREE  =      0    steps in history (QN), initial steepest desc. (CG)
   ISIF   =      2    stress and relaxation
   IWAVPR =     10    prediction:  0-non 1-charg 2-wave 3-comb
   ISYM   =      2    0-nonsym 1-usesym 2-fastsym
   LCORR  =      T    Harris-Foulkes like correction to forces

   POTIM  = 0.5000    time-step for ionic-motion
   TEIN   =    0.0    initial temperature
   TEBEG  =    0.0;   TEEND  =   0.0 temperature during run
   SMASS  =  -3.00    Nose mass-parameter (am)
   estimated Nose-frequenzy (Omega)   =  0.10E-29 period in steps = 0.13E+47 mass=  -0.163E-26a.u.
   SCALEE = 1.0000    scale energy and forces
   NPACO  =    256;   APACO  = 10.0  distance and # of slots for P.C.
   PSTRESS=    0.0 pullay stress

  Mass of Ions in am
   POMASS =  12.01 16.00
  Ionic Valenz
   ZVAL   =   4.00  6.00
  Atomic Wigner-Seitz radii
   RWIGS  =  -1.00 -1.00
  virtual crystal weights 
   VCA    =   1.00  1.00
   NELECT =      10.0000    total number of electrons
   NUPDOWN=      -1.0000    fix difference up-down

 DOS related values:
   EMIN   =  10.00;   EMAX   =-10.00  energy-range for DOS
   EFERMI =   0.00
   ISMEAR =     0;   SIGMA  =   0.05  broadening in eV -4-tet -1-fermi 0-gaus

 Electronic relaxation 2 (details)
   IALGO  =     58    algorithm
   LDIAG  =      T    sub-space diagonalisation (order eigenvalues)
   LSUBROT=      F    optimize rotation matrix (better conditioning)
   TURBO    =      0    0=normal 1=particle mesh
   IRESTART =      0    0=no restart 2=restart with 2 vectors
   NREBOOT  =      0    no. of reboots
   NMIN     =      0    reboot dimension
   EREF     =   0.00    reference energy to select bands
   IMIX   =      4    mixing-type and parameters
     AMIX     =   0.40;   BMIX     =  1.00
     AMIX_MAG =   1.60;   BMIX_MAG =  1.00
     AMIN     =   0.10
     WC   =   100.;   INIMIX=   1;  MIXPRE=   1;  MAXMIX= -45

 Intra band minimization:
   WEIMIN = 0.0000     energy-eigenvalue tresh-hold
   EBREAK =  0.39E-07  absolut break condition
   DEPER  =   0.30     relativ break condition  

   TIME   =   0.40     timestep for ELM

  volume/ion in A,a.u.               =     759.91      5128.13
  Fermi-wavevector in a.u.,A,eV,Ry     =   0.306769  0.579708  1.280402  0.094107
  Thomas-Fermi vector in A             =   1.181026

 Write flags
   LWAVE        =      F    write WAVECAR
   LDOWNSAMPLE  =      F    k-point downsampling of WAVECAR
   LCHARG       =      F    write CHGCAR
   LVTOT        =      F    write LOCPOT, total local potential
   LVHAR        =      F    write LOCPOT, Hartree potential only
   LELF         =      F    write electronic localiz. function (ELF)
   LORBIT       =      0    0 simple, 1 ext, 2 COOP (PROOUT), +10 PAW based schemes


 Dipole corrections
   LMONO  =      F    monopole corrections only (constant potential shift)
   LDIPOL =      T    correct potential (dipole corrections)
   IDIPOL =      3    1-x, 2-y, 3-z, 4-all directions 
   EPSILON=  1.0000000 bulk dielectric constant

 Exchange correlation treatment:
   GGA     =    PE    GGA type
   LEXCH   =     8    internal setting for exchange type
   LIBXC   =     F    Libxc                    
   VOSKOWN =     0    Vosko Wilk Nusair interpolation
   EXXOEP  =     0    0=HF, 1=EXX-LHF (local Hartree Fock) 2=EXX OEP
   LHFCALC =     T    Hartree Fock is set to
   LSYMGRAD=     F    symmetrize gradient (conserves proper symmetry)
   PRECFOCK=normal    Normal, Fast or Accurate (Low or Medium for compatibility)
   LRHFCALC=     F    long range Hartree Fock
   LRSCOR  =     F    long range correlation only (use DFT for short range part)
   LTHOMAS =     F    Thomas Fermi screening in HF
   LMODELHF=     F    short range full HF, long range fraction AEXX
   LFOCKACE=     T    use Adeptively-Compressed-Exchange operator
   ENCUT4O =  -1.0   cutoff for four orbital integrals eV
   LMAXFOCK=     4    L truncation for augmentation on plane wave grid
   LMAXFOCKAE=  -1    L truncation for all-electron charge restoration on plane wave grid
   NMAXFOCKAE=   1    number of basis functions for all-electron charge restoration
   LFOCKAEDFT=     F  apply the AE augmentation even for DFT
   NKREDX  =     1    reduce k-point grid by
   NKREDY  =     1    reduce k-point grid by
   NKREDZ  =     1    reduce k-point grid by
   SHIFTRED=     F    shift reduced grid of Gamma
   HFKIDENT=     F    idential grid for each k-point
   ODDONLY =     F    use only odd q-grid points
   EVENONLY=     F    use only even q-grid points
   HFALPHA =   -1.0000 decay constant for conv. correction
   MCALPHA =    0.0000 extent of test-charge in conv. correction in multipole expansion
   AEXX    =    0.2500 exact exchange contribution
   HFSCREEN=    0.0000 screening length (either q_TF or 0.3 A-1)
   HFSCREENC=   0.0000 screening length for correlation (either q_TF or 0.3 A-1)
   HFRCUT  =    0.0000 spherical cutoff for potential kernel
   ALDAX   =    0.7500 LDA exchange part
   AGGAX   =    0.7500 GGA exchange part
   ALDAC   =    1.0000 LDA correlation
   AGGAC   =    1.0000 GGA correlation
   ENCUTFOCK=  -1.0 apply spherical cutoff to Coloumb kernel
   NBANDSGWLOW=     1    first orbital included in HF term
   NBLOCK_FOCK=    64    blocking factor in FOCK_ACC

 Linear response parameters
   LEPSILON=     F    determine dielectric tensor
   LRPA    =     F    only Hartree local field effects (RPA)
   LNABLA  =     F    use nabla operator in PAW spheres
   LVEL    =     F    velocity operator in full k-point grid
   CSHIFT  =0.1000    complex shift for real part using Kramers Kronig
   OMEGAMAX=  -1.0    maximum frequency
   DEG_THRESHOLD= 0.2000000E-02 threshold for treating states as degnerate
   RTIME   =   -0.100 relaxation time in fs
  (WPLASMAI=    0.000 imaginary part of plasma frequency in eV, 0.658/RTIME)
   DFIELD  = 0.0000000 0.0000000 0.0000000 field for delta impulse in time

  Optional k-point grid parameters
   LKPOINTS_OPT  =     F    use optional k-point grid
   KPOINTS_OPT_MODE=     1    mode for optional k-point grid

 Orbital magnetization related:
   ORBITALMAG=     F  switch on orbital magnetization
   LCHIMAG   =     F  perturbation theory with respect to B field
   DQ        =  0.001000  dq finite difference perturbation B field
   LLRAUG    =     F  two centre corrections for induced B field



--------------------------------------------------------------------------------------------------------


 Static calculation
 charge density and potential will be updated during run
 non-spin polarized calculation
 Conjugate gradient for all bands (Freysoldt, et al. PRB 79, 241103 (2009))
 preconditioned conjugated gradient                                        
 perform sub-space diagonalisation
    before iterative eigenvector-optimisation
 modified Broyden-mixing scheme, WC =      100.0
 initial mixing is a Kerker type mixing with AMIX =  0.4000 and BMIX =      1.0000
 Hartree-type preconditioning will be used
 using additional bands           59
 reciprocal scheme for non local part
 use partial core corrections
 no Harris-corrections to forces 
 use gradient corrections 
 use of overlap-Matrix (Vanderbilt PP)
 Gauss-broadening in eV      SIGMA  =   0.05


--------------------------------------------------------------------------------------------------------


  energy-cutoff  :      600.00
  volume of cell :     1519.82
      direct lattice vectors                 reciprocal lattice vectors
     8.440984654  0.000000000  0.000000000     0.118469591  0.000000000  0.000000000
     0.000000000  8.440984654  0.000000000     0.000000000  0.118469591  0.000000000
     0.000000000  0.000000000 21.330738491     0.000000000  0.000000000  0.046880702

  length of vectors
     8.440984654  8.440984654 21.330738491     0.118469591  0.118469591  0.046880702



 k-points in units of 2pi/SCALE and weight: pymatgen v2020.8.13 with grid density = 
   0.00000000  0.00000000  0.00000000       0.250
   0.05923480  0.00000000  0.00000000       0.500
   0.05923480  0.05923480  0.00000000       0.250

 k-points in reciprocal lattice and weights: pymatgen v2020.8.13 with grid density = 
   0.00000000  0.00000000  0.00000000       0.250
   0.50000000  0.00000000  0.00000000       0.500
   0.50000000  0.50000000  0.00000000       0.250

 position of ions in fractional coordinates (direct lattice) 
   0.50000000  0.50000000  0.76505380
   0.50000000  0.50000000  0.81881752

 position of ions in cartesian coordinates  (Angst):
   4.22049233  4.22049233 16.31916259
   4.22049233  4.22049233 17.46598241



--------------------------------------------------------------------------------------------------------


 k-point   1 :   0.0000 0.0000 0.0000  plane waves:   50745
 k-point   2 :   0.5000 0.0000 0.0000  plane waves:   50798
 k-point   3 :   0.5000 0.5000 0.0000  plane waves:   50752

 maximum and minimum number of plane-waves per node :      6394     6276

 maximum number of plane-waves:     50798
 maximum index in each direction: 
   IXMAX=   16   IYMAX=   16   IZMAX=   42
   IXMIN=  -17   IYMIN=  -17   IZMIN=  -42


 parallel 3D FFT for wavefunctions:
    minimum data exchange during FFTs selected (reduces bandwidth)
 parallel 3D FFT for charge:
    minimum data exchange during FFTs selected (reduces bandwidth)


 FFT grid for exact exchange (Hartree Fock) 
  NGX = 54; NGY = 54; NGZ =128


 Radii for the augmentation spheres in the non-local exchange
 for species   1 augmentation radius   0.874 (default was   0.699)
       energy cutoff for augmentation   2400.0
 for species   2 augmentation radius   0.902 (default was   0.722)
       energy cutoff for augmentation   2400.0

 real space projection operators:
  total allocation   :        102.23 KBytes
  max/ min on nodes  :         13.36         11.88

 Maximum index for augmentation-charges in exchange           92
  SETUP_FOCK is finished

 total amount of memory used by VASP MPI-rank0    48797. kBytes
=======================================================================

   base      :      30000. kBytes
   nonl-proj :       2689. kBytes
   fftplans  :       7742. kBytes
   grid      :       7379. kBytes
   one-center:          3. kBytes
   HF        :          4. kBytes
   nonlr-proj:         41. kBytes
   wavefun   :        939. kBytes

     INWAV:  cpu time      0.0001: real time      0.0003
 Broyden mixing: mesh for mixing (old mesh)
   NGX = 33   NGY = 33   NGZ = 85
  (NGX  =140   NGY  =140   NGZ  =360)
  gives a total of  92565 points

 initial charge density was supplied:
 charge density of overlapping atoms calculated
 number of electron      10.0000000 magnetization 
 keeping initial charge density in first step


--------------------------------------------------------------------------------------------------------


 Maximum index for augmentation-charges            0 (set IRDMAX)


--------------------------------------------------------------------------------------------------------


    FEWALD:  cpu time      0.0008: real time      0.0008


--------------------------------------- Iteration      1(   1)  ---------------------------------------


    POTLOK:  cpu time      0.0758: real time      0.0760
    SETDIJ:  cpu time      0.0616: real time      0.0617
    TRIAL :  cpu time      0.3602: real time      0.3606
    CORREC:  cpu time      0.0004: real time      0.0004
    --------------------------------------------
      LOOP:  cpu time      0.4995: real time      0.5003

 eigenvalue-minimisations  :   384
 total energy-change (2. order) : 0.1491599E+02  (-0.3370439E+03)
 number of electron      10.0000000 magnetization 
 augmentation part       10.0000000 magnetization 

 DIPCOR: dipole corrections for dipol
 direction  3 min pos     1,
 dipolmoment           0.000000      0.000000     -0.000250 electrons x Angstroem
 Tr[quadrupol]      -355.254441

 energy correction for charged system         0.000000 eV
 dipol+quadrupol energy correction           -0.000000 eV
 added-field ion interaction          0.001889 eV  (added to PSCEN)


 Free energy of the ion-electron system (eV)
  ---------------------------------------------------
  alpha Z        PSCENC =         0.28939502
  Ewald energy   TEWEN  =       192.88447950
  -Hartree energ DENC   =      -654.07813843
  -exchange      EXHF   =         0.00000000
  -V(xc)+E(xc)   XCENC  =        39.18403306
  PAW double counting   =       455.07152327     -512.34190964
  entropy T*S    EENTRO =        -0.00000000
  eigenvalues    EBANDS =       -79.95381286
  atomic energy  EATOM  =       573.86041687
  ---------------------------------------------------
  free energy    TOTEN  =        14.91598679 eV

  energy without entropy =       14.91598679  energy(sigma->0) =       14.91598679
  exchange ACFDT corr.  =         0.00000000  see jH, gK, PRB 81, 115126


--------------------------------------------------------------------------------------------------------




--------------------------------------- Iteration      1(   2)  ---------------------------------------


    TRIAL :  cpu time      1.2733: real time      1.2740
    CORREC:  cpu time      0.0002: real time      0.0002
    --------------------------------------------
      LOOP:  cpu time      1.2805: real time      1.2866

 eigenvalue-minimisations  :   704
 total energy-change (2. order) :-0.9384736E+02  (-0.9384736E+02)
 number of electron      10.0000000 magnetization 
 augmentation part       10.0000000 magnetization 

 DIPCOR: dipole corrections for dipol
 direction  3 min pos     1,
 dipolmoment           0.000000      0.000000     -0.000250 electrons x Angstroem
 Tr[quadrupol]      -355.254441

 energy correction for charged system         0.000000 eV
 dipol+quadrupol energy correction           -0.000000 eV
 added-field ion interaction          0.001889 eV  (added to PSCEN)


 Free energy of the ion-electron system (eV)
  ---------------------------------------------------
  alpha Z        PSCENC =         0.28939502
  Ewald energy   TEWEN  =       192.88447950
  -Hartree energ DENC   =      -654.07813843
  -exchange      EXHF   =         0.00000000
  -V(xc)+E(xc)   XCENC  =        39.18403306
  PAW double counting   =       455.07152327     -512.34190964
  entropy T*S    EENTRO =        -0.00000000
  eigenvalues    EBANDS =      -173.80117246
  atomic energy  EATOM  =       573.86041687
  ---------------------------------------------------
  free energy    TOTEN  =       -78.93137281 eV

  energy without entropy =      -78.93137281  energy(sigma->0) =      -78.93137281
  exchange ACFDT corr.  =         0.00000000  see jH, gK, PRB 81, 115126


--------------------------------------------------------------------------------------------------------




--------------------------------------- Iteration      1(   3)  ---------------------------------------


    TRIAL :  cpu time      0.3616: real time      0.3620
    CORREC:  cpu time      0.0002: real time      0.0002
    --------------------------------------------
      LOOP:  cpu time      0.3742: real time      0.3749

 eigenvalue-minimisations  :   384
 total energy-change (2. order) :-0.6462168E+00  (-0.6462168E+00)
 number of electron      10.0000000 magnetization 
 augmentation part       10.0000000 magnetization 

 DIPCOR: dipole corrections for dipol
 direction  3 min pos     1,
 dipolmoment           0.000000      0.000000     -0.000250 electrons x Angstroem
 Tr[quadrupol]      -355.254441

 energy correction for charged system         0.000000 eV
 dipol+quadrupol energy correction           -0.000000 eV
 added-field ion interaction          0.001889 eV  (added to PSCEN)


 Free energy of the ion-electron system (eV)
  ---------------------------------------------------
  alpha Z        PSCENC =         0.28939502
  Ewald energy   TEWEN  =       192.88447950
  -Hartree energ DENC   =      -654.07813843
  -exchange      EXHF   =         0.00000000
  -V(xc)+E(xc)   XCENC  =        39.18403306
  PAW double counting   =       455.07152327     -512.34190964
  entropy T*S    EENTRO =        -0.00000000
  eigenvalues    EBANDS =      -174.44738927
  atomic energy  EATOM  =       573.86041687
  ---------------------------------------------------
  free energy    TOTEN  =       -79.57758962 eV

  energy without entropy =      -79.57758962  energy(sigma->0) =      -79.57758962
  exchange ACFDT corr.  =         0.00000000  see jH, gK, PRB 81, 115126


--------------------------------------------------------------------------------------------------------




--------------------------------------- Iteration      1(   4)  ---------------------------------------


    TRIAL :  cpu time      0.7209: real time      0.7210
    CORREC:  cpu time      0.0002: real time      0.0002
    --------------------------------------------
      LOOP:  cpu time      0.7336: real time      0.7337

 eigenvalue-minimisations  :   512
 total energy-change (2. order) :-0.2488509E-02  (-0.2488510E-02)
 number of electron      10.0000000 magnetization 
 augmentation part       10.0000000 magnetization 

 DIPCOR: dipole corrections for dipol
 direction  3 min pos     1,
 dipolmoment           0.000000      0.000000     -0.000250 electrons x Angstroem
 Tr[quadrupol]      -355.254441

 energy correction for charged system         0.000000 eV
 dipol+quadrupol energy correction           -0.000000 eV
 added-field ion interaction          0.001889 eV  (added to PSCEN)


 Free energy of the ion-electron system (eV)
  ---------------------------------------------------
  alpha Z        PSCENC =         0.28939502
  Ewald energy   TEWEN  =       192.88447950
  -Hartree energ DENC   =      -654.07813843
  -exchange      EXHF   =         0.00000000
  -V(xc)+E(xc)   XCENC  =        39.18403306
  PAW double counting   =       455.07152327     -512.34190964
  entropy T*S    EENTRO =        -0.00000000
  eigenvalues    EBANDS =      -174.44987778
  atomic energy  EATOM  =       573.86041687
  ---------------------------------------------------
  free energy    TOTEN  =       -79.58007813 eV

  energy without entropy =      -79.58007813  energy(sigma->0) =      -79.58007813
  exchange ACFDT corr.  =         0.00000000  see jH, gK, PRB 81, 115126


--------------------------------------------------------------------------------------------------------




--------------------------------------- Iteration      1(   5)  ---------------------------------------


    POTLOK:  cpu time      0.0633: real time      0.0634
    SETDIJ:  cpu time      0.0581: real time      0.0585
    TRIAL :  cpu time      5.5988: real time      5.6025
    CORREC:  cpu time      0.0002: real time      0.0002
    CHARGE:  cpu time      0.1500: real time      0.1506
    --------------------------------------------
      LOOP:  cpu time      5.8838: real time      5.8886

 eigenvalue-minimisations  :   384
 total energy-change (2. order) : 0.5925262E+02  (-0.1159239E+00)
 number of electron       9.9999999 magnetization 
 augmentation part        0.7382625 magnetization 

 DIPCOR: dipole corrections for dipol
 direction  3 min pos     1,
 dipolmoment           0.000000      0.000000     -0.000250 electrons x Angstroem
 Tr[quadrupol]      -355.254441

 energy correction for charged system         0.000000 eV
 dipol+quadrupol energy correction           -0.000000 eV
 added-field ion interaction          0.001889 eV  (added to PSCEN)


 Free energy of the ion-electron system (eV)
  ---------------------------------------------------
  alpha Z        PSCENC =         0.28939502
  Ewald energy   TEWEN  =       192.88447950
  -Hartree energ DENC   =      -654.07813843
  -exchange      EXHF   =        32.44313933
  -V(xc)+E(xc)   XCENC  =        30.06330536
  PAW double counting   =       463.58885713     -464.98532872
  entropy T*S    EENTRO =        -0.00000000
  eigenvalues    EBANDS =      -194.39358286
  atomic energy  EATOM  =       573.86041687
  ---------------------------------------------------
  free energy    TOTEN  =       -20.32745680 eV

  energy without entropy =      -20.32745680  energy(sigma->0) =      -20.32745680
  exchange ACFDT corr.  =        -0.00000000  see jH, gK, PRB 81, 115126


--------------------------------------------------------------------------------------------------------




--------------------------------------- Iteration      1(   6)  ---------------------------------------


    POTLOK:  cpu time      0.0771: real time      0.0771
    SETDIJ:  cpu time      0.0588: real time      0.0588
    TRIAL :  cpu time     20.7549: real time     20.7652
    CORREC:  cpu time      5.5140: real time      5.5180
    CHARGE:  cpu time      0.1211: real time      0.1212
    --------------------------------------------
      LOOP:  cpu time     26.5382: real time     26.5529

 eigenvalue-minimisations  :     0
 total energy-change (2. order) : 0.2537068E+01  (-0.1125802E+01)
 number of electron      10.0000000 magnetization 
 augmentation part        0.6779874 magnetization 

 DIPCOR: dipole corrections for dipol
 direction  3 min pos     1,
 dipolmoment           0.000000      0.000000      0.109715 electrons x Angstroem
 Tr[quadrupol]      -353.512917

 energy correction for charged system         0.000000 eV
 dipol+quadrupol energy correction           -0.000717 eV
 added-field ion interaction         -0.828449 eV  (added to PSCEN)


 Free energy of the ion-electron system (eV)
  ---------------------------------------------------
  alpha Z        PSCENC =        -1.44007638
  Ewald energy   TEWEN  =       192.88447950
  -Hartree energ DENC   =      -706.24752347
  -exchange      EXHF   =        32.49861852
  -V(xc)+E(xc)   XCENC  =        32.27825865
  PAW double counting   =       886.71232778     -888.43093335
  entropy T*S    EENTRO =        -0.00000000
  eigenvalues    EBANDS =      -139.90595692
  atomic energy  EATOM  =       573.86041687
  ---------------------------------------------------
  free energy    TOTEN  =       -17.79038880 eV

  energy without entropy =      -17.79038880  energy(sigma->0) =      -17.79038880
  exchange ACFDT corr.  =         0.00000000  see jH, gK, PRB 81, 115126


--------------------------------------------------------------------------------------------------------




--------------------------------------- Iteration      1(   7)  ---------------------------------------


    POTLOK:  cpu time      0.0737: real time      0.0737
    SETDIJ:  cpu time      0.0616: real time      0.0616
    TRIAL :  cpu time      5.3387: real time      5.3416
    CORREC:  cpu time      5.4666: real time      5.4703
    CHARGE:  cpu time      0.1149: real time      0.1150
    --------------------------------------------
      LOOP:  cpu time     11.0679: real time     11.0749

 eigenvalue-minimisations  :     0
 total energy-change (2. order) :-0.1132622E+01  (-0.2053456E+00)
 number of electron      10.0000000 magnetization 
 augmentation part        0.6537019 magnetization 

 DIPCOR: dipole corrections for dipol
 direction  3 min pos     1,
 dipolmoment           0.000000      0.000000      0.082739 electrons x Angstroem
 Tr[quadrupol]      -354.124157

 energy correction for charged system         0.000000 eV
 dipol+quadrupol energy correction           -0.000408 eV
 added-field ion interaction         -0.624758 eV  (added to PSCEN)


 Free energy of the ion-electron system (eV)
  ---------------------------------------------------
  alpha Z        PSCENC =        -0.79314349
  Ewald energy   TEWEN  =       192.88447950
  -Hartree energ DENC   =      -680.62521939
  -exchange      EXHF   =        31.37957009
  -V(xc)+E(xc)   XCENC  =        31.22405798
  PAW double counting   =       867.86844843     -869.41647110
  entropy T*S    EENTRO =        -0.00000000
  eigenvalues    EBANDS =      -165.30514998
  atomic energy  EATOM  =       573.86041687
  ---------------------------------------------------
  free energy    TOTEN  =       -18.92301109 eV

  energy without entropy =      -18.92301109  energy(sigma->0) =      -18.92301109
  exchange ACFDT corr.  =         0.00000000  see jH, gK, PRB 81, 115126


--------------------------------------------------------------------------------------------------------




--------------------------------------- Iteration      1(   8)  ---------------------------------------


    POTLOK:  cpu time      0.0727: real time      0.0727
    SETDIJ:  cpu time      0.0587: real time      0.0587
    TRIAL :  cpu time      5.3151: real time      5.3186
    CORREC:  cpu time      5.5560: real time      5.5595
    CHARGE:  cpu time      0.1154: real time      0.1154
    --------------------------------------------
      LOOP:  cpu time     11.1303: real time     11.1375

 eigenvalue-minimisations  :     0
 total energy-change (2. order) :-0.2053382E+00  (-0.8335666E-01)
 number of electron      10.0000000 magnetization 
 augmentation part        0.6484296 magnetization 

 DIPCOR: dipole corrections for dipol
 direction  3 min pos     1,
 dipolmoment           0.000000      0.000000      0.017772 electrons x Angstroem
 Tr[quadrupol]      -354.980958

 energy correction for charged system         0.000000 eV
 dipol+quadrupol energy correction           -0.000019 eV
 added-field ion interaction         -0.134196 eV  (added to PSCEN)


 Free energy of the ion-electron system (eV)
  ---------------------------------------------------
  alpha Z        PSCENC =        -0.24099643
  Ewald energy   TEWEN  =       192.88447950
  -Hartree energ DENC   =      -678.14911674
  -exchange      EXHF   =        31.26722593
  -V(xc)+E(xc)   XCENC  =        31.11648692
  PAW double counting   =       874.08145129     -875.50065245
  entropy T*S    EENTRO =        -0.00000000
  eigenvalues    EBANDS =      -168.44764417
  atomic energy  EATOM  =       573.86041687
  ---------------------------------------------------
  free energy    TOTEN  =       -19.12834929 eV

  energy without entropy =      -19.12834929  energy(sigma->0) =      -19.12834929
  exchange ACFDT corr.  =         0.00000000  see jH, gK, PRB 81, 115126


--------------------------------------------------------------------------------------------------------




--------------------------------------- Iteration      1(   9)  ---------------------------------------


    POTLOK:  cpu time      0.0733: real time      0.0734
    SETDIJ:  cpu time      0.0625: real time      0.0625
    TRIAL :  cpu time      5.3190: real time      5.3225
    CORREC:  cpu time      5.5614: real time      5.5642
    CHARGE:  cpu time      0.1138: real time      0.1138
    --------------------------------------------
      LOOP:  cpu time     11.1425: real time     11.1491

 eigenvalue-minimisations  :     0
 total energy-change (2. order) :-0.8331518E-01  (-0.3333579E-01)
 number of electron      10.0000000 magnetization 
 augmentation part        0.6487958 magnetization 

 DIPCOR: dipole corrections for dipol
 direction  3 min pos     1,
 dipolmoment           0.000000      0.000000     -0.001791 electrons x Angstroem
 Tr[quadrupol]      -355.220278

 energy correction for charged system         0.000000 eV
 dipol+quadrupol energy correction           -0.000000 eV
 added-field ion interaction          0.013520 eV  (added to PSCEN)


 Free energy of the ion-electron system (eV)
  ---------------------------------------------------
  alpha Z        PSCENC =         0.17702769
  Ewald energy   TEWEN  =       192.88447950
  -Hartree energ DENC   =      -677.15445128
  -exchange      EXHF   =        31.20931760
  -V(xc)+E(xc)   XCENC  =        31.07648828
  PAW double counting   =       878.90529609     -880.29293691
  entropy T*S    EENTRO =        -0.00000000
  eigenvalues    EBANDS =      -169.87730233
  atomic energy  EATOM  =       573.86041687
  ---------------------------------------------------
  free energy    TOTEN  =       -19.21166447 eV

  energy without entropy =      -19.21166447  energy(sigma->0) =      -19.21166447
  exchange ACFDT corr.  =        -0.00000000  see jH, gK, PRB 81, 115126


--------------------------------------------------------------------------------------------------------




--------------------------------------- Iteration      1(  10)  ---------------------------------------


    POTLOK:  cpu time      0.0725: real time      0.0726
    SETDIJ:  cpu time      0.0638: real time      0.0638
    TRIAL :  cpu time      5.3804: real time      5.3843
    CORREC:  cpu time      5.5491: real time      5.5521
    CHARGE:  cpu time      0.1136: real time      0.1136
    --------------------------------------------
      LOOP:  cpu time     11.1922: real time     11.1994

 eigenvalue-minimisations  :     0
 total energy-change (2. order) :-0.3328989E-01  (-0.1393540E-01)
 number of electron      10.0000000 magnetization 
 augmentation part        0.6490073 magnetization 

 DIPCOR: dipole corrections for dipol
 direction  3 min pos     1,
 dipolmoment           0.000000      0.000000     -0.010737 electrons x Angstroem
 Tr[quadrupol]      -355.316527

 energy correction for charged system         0.000000 eV
 dipol+quadrupol energy correction           -0.000007 eV
 added-field ion interaction          0.081076 eV  (added to PSCEN)


 Free energy of the ion-electron system (eV)
  ---------------------------------------------------
  alpha Z        PSCENC =         0.34862472
  Ewald energy   TEWEN  =       192.88447950
  -Hartree energ DENC   =      -676.39435440
  -exchange      EXHF   =        31.16474868
  -V(xc)+E(xc)   XCENC  =        31.05020198
  PAW double counting   =       880.10693988     -881.49296542
  entropy T*S    EENTRO =        -0.00000000
  eigenvalues    EBANDS =      -170.77304618
  atomic energy  EATOM  =       573.86041687
  ---------------------------------------------------
  free energy    TOTEN  =       -19.24495436 eV

  energy without entropy =      -19.24495436  energy(sigma->0) =      -19.24495436
  exchange ACFDT corr.  =        -0.00000000  see jH, gK, PRB 81, 115126


--------------------------------------------------------------------------------------------------------




--------------------------------------- Iteration      1(  11)  ---------------------------------------


    POTLOK:  cpu time      0.0727: real time      0.0728
    SETDIJ:  cpu time      0.0581: real time      0.0586
    TRIAL :  cpu time      5.2696: real time      5.2729
    CORREC:  cpu time      5.5554: real time      5.5583
    CHARGE:  cpu time      0.1156: real time      0.1156
    --------------------------------------------
      LOOP:  cpu time     11.0836: real time     11.0905

 eigenvalue-minimisations  :     0
 total energy-change (2. order) :-0.1392251E-01  (-0.5535926E-02)
 number of electron      10.0000000 magnetization 
 augmentation part        0.6496837 magnetization 

 DIPCOR: dipole corrections for dipol
 direction  3 min pos     1,
 dipolmoment           0.000000      0.000000     -0.009310 electrons x Angstroem
 Tr[quadrupol]      -355.292054

 energy correction for charged system         0.000000 eV
 dipol+quadrupol energy correction           -0.000005 eV
 added-field ion interaction          0.070302 eV  (added to PSCEN)


 Free energy of the ion-electron system (eV)
  ---------------------------------------------------
  alpha Z        PSCENC =         0.37561331
  Ewald energy   TEWEN  =       192.88447950
  -Hartree energ DENC   =      -675.82780544
  -exchange      EXHF   =        31.13351549
  -V(xc)+E(xc)   XCENC  =        31.03001492
  PAW double counting   =       878.93424531     -880.32108546
  entropy T*S    EENTRO =        -0.00000000
  eigenvalues    EBANDS =      -171.32827137
  atomic energy  EATOM  =       573.86041687
  ---------------------------------------------------
  free energy    TOTEN  =       -19.25887687 eV

  energy without entropy =      -19.25887687  energy(sigma->0) =      -19.25887687
  exchange ACFDT corr.  =        -0.00000000  see jH, gK, PRB 81, 115126


--------------------------------------------------------------------------------------------------------




--------------------------------------- Iteration      1(  12)  ---------------------------------------


    POTLOK:  cpu time      0.0723: real time      0.0724
    SETDIJ:  cpu time      0.0585: real time      0.0585
    TRIAL :  cpu time      5.2848: real time      5.2876
    CORREC:  cpu time      5.5926: real time      5.5961
    CHARGE:  cpu time      0.1140: real time      0.1140
    --------------------------------------------
      LOOP:  cpu time     11.1344: real time     11.1414

 eigenvalue-minimisations  :     0
 total energy-change (2. order) :-0.5531079E-02  (-0.1812821E-02)
 number of electron      10.0000000 magnetization 
 augmentation part        0.6500543 magnetization 

 DIPCOR: dipole corrections for dipol
 direction  3 min pos     1,
 dipolmoment           0.000000      0.000000     -0.005728 electrons x Angstroem
 Tr[quadrupol]      -355.244199

 energy correction for charged system         0.000000 eV
 dipol+quadrupol energy correction           -0.000002 eV
 added-field ion interaction          0.043253 eV  (added to PSCEN)


 Free energy of the ion-electron system (eV)
  ---------------------------------------------------
  alpha Z        PSCENC =         0.35099101
  Ewald energy   TEWEN  =       192.88447950
  -Hartree energ DENC   =      -675.50696940
  -exchange      EXHF   =        31.11452384
  -V(xc)+E(xc)   XCENC  =        31.01650088
  PAW double counting   =       877.33635497     -878.72869345
  entropy T*S    EENTRO =        -0.00000000
  eigenvalues    EBANDS =      -171.59201217
  atomic energy  EATOM  =       573.86041687
  ---------------------------------------------------
  free energy    TOTEN  =       -19.26440795 eV

  energy without entropy =      -19.26440795  energy(sigma->0) =      -19.26440795
  exchange ACFDT corr.  =         0.00000000  see jH, gK, PRB 81, 115126


--------------------------------------------------------------------------------------------------------




--------------------------------------- Iteration      1(  13)  ---------------------------------------


    POTLOK:  cpu time      0.0731: real time      0.0732
    SETDIJ:  cpu time      0.0585: real time      0.0586
    TRIAL :  cpu time      5.2728: real time      5.2758
    CORREC:  cpu time      5.5343: real time      5.5377
    CHARGE:  cpu time      0.1145: real time      0.1145
    --------------------------------------------
      LOOP:  cpu time     11.0656: real time     11.0724

 eigenvalue-minimisations  :     0
 total energy-change (2. order) :-0.1812713E-02  (-0.5907315E-03)
 number of electron      10.0000000 magnetization 
 augmentation part        0.6499911 magnetization 

 DIPCOR: dipole corrections for dipol
 direction  3 min pos     1,
 dipolmoment           0.000000      0.000000     -0.003209 electrons x Angstroem
 Tr[quadrupol]      -355.211751

 energy correction for charged system         0.000000 eV
 dipol+quadrupol energy correction           -0.000001 eV
 added-field ion interaction          0.024229 eV  (added to PSCEN)


 Free energy of the ion-electron system (eV)
  ---------------------------------------------------
  alpha Z        PSCENC =         0.32399470
  Ewald energy   TEWEN  =       192.88447950
  -Hartree energ DENC   =      -675.34502987
  -exchange      EXHF   =        31.10503004
  -V(xc)+E(xc)   XCENC  =        31.00863515
  PAW double counting   =       876.26814804     -877.66425973
  entropy T*S    EENTRO =        -0.00000000
  eigenvalues    EBANDS =      -171.70763536
  atomic energy  EATOM  =       573.86041687
  ---------------------------------------------------
  free energy    TOTEN  =       -19.26622066 eV

  energy without entropy =      -19.26622066  energy(sigma->0) =      -19.26622066
  exchange ACFDT corr.  =        -0.00000000  see jH, gK, PRB 81, 115126


--------------------------------------------------------------------------------------------------------




--------------------------------------- Iteration      1(  14)  ---------------------------------------


    POTLOK:  cpu time      0.0727: real time      0.0728
    SETDIJ:  cpu time      0.0585: real time      0.0585
    TRIAL :  cpu time      5.2665: real time      5.2694
    CORREC:  cpu time      5.4978: real time      5.5004
    CHARGE:  cpu time      0.1153: real time      0.1153
    --------------------------------------------
      LOOP:  cpu time     11.0234: real time     11.0292

 eigenvalue-minimisations  :     0
 total energy-change (2. order) :-0.5908427E-03  (-0.1696674E-03)
 number of electron      10.0000000 magnetization 
 augmentation part        0.6498673 magnetization 

 DIPCOR: dipole corrections for dipol
 direction  3 min pos     1,
 dipolmoment           0.000000      0.000000     -0.001988 electrons x Angstroem
 Tr[quadrupol]      -355.196436

 energy correction for charged system         0.000000 eV
 dipol+quadrupol energy correction           -0.000000 eV
 added-field ion interaction          0.015011 eV  (added to PSCEN)


 Free energy of the ion-electron system (eV)
  ---------------------------------------------------
  alpha Z        PSCENC =         0.30688347
  Ewald energy   TEWEN  =       192.88447950
  -Hartree energ DENC   =      -675.25540274
  -exchange      EXHF   =        31.10041986
  -V(xc)+E(xc)   XCENC  =        31.00405604
  PAW double counting   =       875.56902779     -876.96598908
  entropy T*S    EENTRO =        -0.00000000
  eigenvalues    EBANDS =      -171.77070321
  atomic energy  EATOM  =       573.86041687
  ---------------------------------------------------
  free energy    TOTEN  =       -19.26681150 eV

  energy without entropy =      -19.26681150  energy(sigma->0) =      -19.26681150
  exchange ACFDT corr.  =        -0.00000000  see jH, gK, PRB 81, 115126


--------------------------------------------------------------------------------------------------------




--------------------------------------- Iteration      1(  15)  ---------------------------------------


    POTLOK:  cpu time      0.0719: real time      0.0719
    SETDIJ:  cpu time      0.0585: real time      0.0585
    TRIAL :  cpu time      5.2853: real time      5.2879
    CORREC:  cpu time      5.5737: real time      5.5769
    CHARGE:  cpu time      0.1146: real time      0.1146
    --------------------------------------------
      LOOP:  cpu time     11.1162: real time     11.1224

 eigenvalue-minimisations  :     0
 total energy-change (2. order) :-0.1696129E-03  (-0.5352116E-04)
 number of electron      10.0000000 magnetization 
 augmentation part        0.6498151 magnetization 

 DIPCOR: dipole corrections for dipol
 direction  3 min pos     1,
 dipolmoment           0.000000      0.000000     -0.001617 electrons x Angstroem
 Tr[quadrupol]      -355.192215

 energy correction for charged system         0.000000 eV
 dipol+quadrupol energy correction           -0.000000 eV
 added-field ion interaction          0.012208 eV  (added to PSCEN)


 Free energy of the ion-electron system (eV)
  ---------------------------------------------------
  alpha Z        PSCENC =         0.30037636
  Ewald energy   TEWEN  =       192.88447950
  -Hartree energ DENC   =      -675.25824609
  -exchange      EXHF   =        31.10057304
  -V(xc)+E(xc)   XCENC  =        31.00371960
  PAW double counting   =       875.25065550     -876.64721522
  entropy T*S    EENTRO =        -0.00000000
  eigenvalues    EBANDS =      -171.76174068
  atomic energy  EATOM  =       573.86041687
  ---------------------------------------------------
  free energy    TOTEN  =       -19.26698112 eV

  energy without entropy =      -19.26698112  energy(sigma->0) =      -19.26698112
  exchange ACFDT corr.  =        -0.00000000  see jH, gK, PRB 81, 115126


--------------------------------------------------------------------------------------------------------




--------------------------------------- Iteration      1(  16)  ---------------------------------------


    POTLOK:  cpu time      0.0728: real time      0.0729
    SETDIJ:  cpu time      0.0585: real time      0.0585
    TRIAL :  cpu time      5.3090: real time      5.3119
    CORREC:  cpu time      5.4864: real time      5.4892
    CHARGE:  cpu time      0.1139: real time      0.1139
    --------------------------------------------
      LOOP:  cpu time     11.1277: real time     11.1335

 eigenvalue-minimisations  :     0
 total energy-change (2. order) :-0.5349609E-04  (-0.1850481E-04)
 number of electron      10.0000000 magnetization 
 augmentation part        0.6498027 magnetization 

 DIPCOR: dipole corrections for dipol
 direction  3 min pos     1,
 dipolmoment           0.000000      0.000000     -0.001622 electrons x Angstroem
 Tr[quadrupol]      -355.192690

 energy correction for charged system         0.000000 eV
 dipol+quadrupol energy correction           -0.000000 eV
 added-field ion interaction          0.012251 eV  (added to PSCEN)


 Free energy of the ion-electron system (eV)
  ---------------------------------------------------
  alpha Z        PSCENC =         0.29940373
  Ewald energy   TEWEN  =       192.88447950
  -Hartree energ DENC   =      -675.26955970
  -exchange      EXHF   =        31.10118171
  -V(xc)+E(xc)   XCENC  =        31.00399239
  PAW double counting   =       875.09678962     -876.49318908
  entropy T*S    EENTRO =        -0.00000000
  eigenvalues    EBANDS =      -171.75054966
  atomic energy  EATOM  =       573.86041687
  ---------------------------------------------------
  free energy    TOTEN  =       -19.26703461 eV

  energy without entropy =      -19.26703461  energy(sigma->0) =      -19.26703461
  exchange ACFDT corr.  =        -0.00000000  see jH, gK, PRB 81, 115126


--------------------------------------------------------------------------------------------------------




--------------------------------------- Iteration      1(  17)  ---------------------------------------


    POTLOK:  cpu time      0.0732: real time      0.0733
    SETDIJ:  cpu time      0.0628: real time      0.0628
    TRIAL :  cpu time      5.3276: real time      5.3307
    CORREC:  cpu time      5.5745: real time      5.5775
    CHARGE:  cpu time      0.1147: real time      0.1147
    --------------------------------------------
      LOOP:  cpu time     11.1656: real time     11.1721

 eigenvalue-minimisations  :     0
 total energy-change (2. order) :-0.1851004E-04  (-0.6743326E-05)
 number of electron      10.0000000 magnetization 
 augmentation part        0.6498123 magnetization 

 DIPCOR: dipole corrections for dipol
 direction  3 min pos     1,
 dipolmoment           0.000000      0.000000     -0.001684 electrons x Angstroem
 Tr[quadrupol]      -355.193697

 energy correction for charged system         0.000000 eV
 dipol+quadrupol energy correction           -0.000000 eV
 added-field ion interaction          0.012714 eV  (added to PSCEN)


 Free energy of the ion-electron system (eV)
  ---------------------------------------------------
  alpha Z        PSCENC =         0.29992308
  Ewald energy   TEWEN  =       192.88447950
  -Hartree energ DENC   =      -675.27803012
  -exchange      EXHF   =        31.10165889
  -V(xc)+E(xc)   XCENC  =        31.00428150
  PAW double counting   =       875.03053999     -876.42690938
  entropy T*S    EENTRO =        -0.00000000
  eigenvalues    EBANDS =      -171.74341347
  atomic energy  EATOM  =       573.86041687
  ---------------------------------------------------
  free energy    TOTEN  =       -19.26705312 eV

  energy without entropy =      -19.26705312  energy(sigma->0) =      -19.26705312
  exchange ACFDT corr.  =        -0.00000000  see jH, gK, PRB 81, 115126


--------------------------------------------------------------------------------------------------------




--------------------------------------- Iteration      1(  18)  ---------------------------------------


    POTLOK:  cpu time      0.0721: real time      0.0722
    SETDIJ:  cpu time      0.0586: real time      0.0586
    TRIAL :  cpu time      5.2966: real time      5.3001
    CORREC:  cpu time      5.5719: real time      5.5745
    EDDIAG:  cpu time      5.2706: real time      5.2741
    CHARGE:  cpu time      0.1177: real time      0.1184
    --------------------------------------------
      LOOP:  cpu time     16.4001: real time     16.4108

 eigenvalue-minimisations  :     0
 total energy-change (2. order) :-0.6753081E-05  (-0.2434806E-05)
 number of electron      10.0000000 magnetization 
 augmentation part        0.6498329 magnetization 

 DIPCOR: dipole corrections for dipol
 direction  3 min pos     1,
 dipolmoment           0.000000      0.000000     -0.001714 electrons x Angstroem
 Tr[quadrupol]      -355.194198

 energy correction for charged system         0.000000 eV
 dipol+quadrupol energy correction           -0.000000 eV
 added-field ion interaction          0.012945 eV  (added to PSCEN)


 Free energy of the ion-electron system (eV)
  ---------------------------------------------------
  alpha Z        PSCENC =         0.30031875
  Ewald energy   TEWEN  =       192.88447950
  -Hartree energ DENC   =      -675.28430861
  -exchange      EXHF   =        31.10231608
  -V(xc)+E(xc)   XCENC  =        31.00454616
  PAW double counting   =       875.01171054     -876.40811095
  entropy T*S    EENTRO =        -0.00000000
  eigenvalues    EBANDS =      -171.73813235
  atomic energy  EATOM  =       573.86041687
  ---------------------------------------------------
  free energy    TOTEN  =       -19.26705988 eV

  energy without entropy =      -19.26705988  energy(sigma->0) =      -19.26705988
  exchange ACFDT corr.  =        -0.00000000  see jH, gK, PRB 81, 115126


--------------------------------------------------------------------------------------------------------


  average scaling for gradient   1.1162


 average (electrostatic) potential at core
  the test charge radii are     0.6991  0.7215
  (the norm of the test charge is              1.0000)
       1 -57.6536       2 -76.7837



 E-fermi : -10.4699     XC(G=0):  -0.3083     alpha+bet : -0.1139

 Fermi energy:       -10.4699007583

 k-point     1 :       0.0000    0.0000    0.0000
  band No.  band energies     occupation 
      1     -32.4129      2.00000
      2     -16.1718      2.00000
      3     -13.2774      2.00000
      4     -13.2774      2.00000
      5     -10.7275      2.00000
      6      -0.8843      0.00000
      7      -0.8843      0.00000
      8      -0.0785      0.00000
      9       0.3039      0.00000
     10       0.3347      0.00000
     11       1.2243      0.00000
     12       1.3034      0.00000
     13       1.8803      0.00000
     14       1.9305      0.00000
     15       1.9305      0.00000
     16       2.1978      0.00000
     17       2.3902      0.00000
     18       2.3954      0.00000
     19       2.3954      0.00000
     20       2.4046      0.00000
     21       2.4712      0.00000
     22       2.4712      0.00000
     23       2.4730      0.00000
     24       2.5808      0.00000
     25       2.8237      0.00000
     26       2.9527      0.00000
     27       3.3434      0.00000
     28       3.3434      0.00000
     29       3.3626      0.00000
     30       3.3760      0.00000
     31       3.3990      0.00000
     32       3.4438      0.00000
     33       3.4438      0.00000
     34       3.5378      0.00000
     35       3.6149      0.00000
     36       4.0687      0.00000
     37       4.0687      0.00000
     38       4.3398      0.00000
     39       4.4682      0.00000
     40       4.5185      0.00000
     41       4.5185      0.00000
     42       4.5284      0.00000
     43       4.5525      0.00000
     44       4.5676      0.00000
     45       4.5676      0.00000
     46       4.6452      0.00000
     47       4.9413      0.00000
     48       4.9747      0.00000
     49       4.9747      0.00000
     50       5.0220      0.00000
     51       5.0359      0.00000
     52       5.0775      0.00000
     53       5.0775      0.00000
     54       5.1893      0.00000
     55       5.2443      0.00000
     56       5.2684      0.00000
     57       5.3991      0.00000
     58       5.4229      0.00000
     59       5.4892      0.00000
     60       5.4892      0.00000
     61       5.5281      0.00000
     62       5.5532      0.00000
     63       5.5532      0.00000
     64       5.8566      0.00000

 k-point     2 :       0.5000    0.0000    0.0000
  band No.  band energies     occupation 
      1     -32.4130      2.00000
      2     -16.1718      2.00000
      3     -13.2775      2.00000
      4     -13.2774      2.00000
      5     -10.7274      2.00000
      6      -0.9217      0.00000
      7      -0.8813      0.00000
      8       0.4410      0.00000
      9       0.4918      0.00000
     10       0.7907      0.00000
     11       0.8493      0.00000
     12       0.8567      0.00000
     13       0.9225      0.00000
     14       1.6942      0.00000
     15       1.8069      0.00000
     16       1.8314      0.00000
     17       1.8880      0.00000
     18       2.3464      0.00000
     19       2.4420      0.00000
     20       2.5806      0.00000
     21       2.6583      0.00000
     22       2.8986      0.00000
     23       2.9218      0.00000
     24       2.9263      0.00000
     25       2.9592      0.00000
     26       2.9769      0.00000
     27       3.0029      0.00000
     28       3.0083      0.00000
     29       3.0179      0.00000
     30       3.2735      0.00000
     31       3.4703      0.00000
     32       3.4747      0.00000
     33       3.5209      0.00000
     34       3.8185      0.00000
     35       3.8547      0.00000
     36       3.9053      0.00000
     37       3.9078      0.00000
     38       3.9399      0.00000
     39       3.9556      0.00000
     40       3.9611      0.00000
     41       3.9824      0.00000
     42       4.5853      0.00000
     43       4.7590      0.00000
     44       5.0458      0.00000
     45       5.0475      0.00000
     46       5.0602      0.00000
     47       5.0919      0.00000
     48       5.3384      0.00000
     49       5.4359      0.00000
     50       5.5287      0.00000
     51       5.5682      0.00000
     52       5.5733      0.00000
     53       5.5743      0.00000
     54       5.6191      0.00000
     55       5.6279      0.00000
     56       5.6774      0.00000
     57       5.7702      0.00000
     58       5.7957      0.00000
     59       5.8231      0.00000
     60       5.9879      0.00000
     61       6.0052      0.00000
     62       6.0803      0.00000
     63       6.0820      0.00000
     64       6.1580      0.00000

 k-point     3 :       0.5000    0.5000    0.0000
  band No.  band energies     occupation 
      1     -32.4130      2.00000
      2     -16.1718      2.00000
      3     -13.2775      2.00000
      4     -13.2775      2.00000
      5     -10.7273      2.00000
      6      -0.9126      0.00000
      7      -0.9126      0.00000
      8       0.9438      0.00000
      9       0.9438      0.00000
     10       1.0268      0.00000
     11       1.0268      0.00000
     12       1.2513      0.00000
     13       1.3541      0.00000
     14       1.3541      0.00000
     15       1.3837      0.00000
     16       1.4312      0.00000
     17       1.4345      0.00000
     18       1.4345      0.00000
     19       1.4510      0.00000
     20       2.1604      0.00000
     21       2.3232      0.00000
     22       2.3232      0.00000
     23       2.3795      0.00000
     24       2.3891      0.00000
     25       2.3986      0.00000
     26       2.3986      0.00000
     27       2.4078      0.00000
     28       3.6583      0.00000
     29       3.9590      0.00000
     30       3.9590      0.00000
     31       3.9726      0.00000
     32       4.0228      0.00000
     33       4.0228      0.00000
     34       4.0357      0.00000
     35       4.0510      0.00000
     36       4.3276      0.00000
     37       4.7916      0.00000
     38       5.0400      0.00000
     39       5.0400      0.00000
     40       5.1769      0.00000
     41       5.1769      0.00000
     42       5.2481      0.00000
     43       5.4270      0.00000
     44       5.5102      0.00000
     45       5.5125      0.00000
     46       5.5249      0.00000
     47       5.5274      0.00000
     48       5.5474      0.00000
     49       5.5474      0.00000
     50       5.5743      0.00000
     51       5.5743      0.00000
     52       5.6070      0.00000
     53       5.6093      0.00000
     54       5.6110      0.00000
     55       5.6110      0.00000
     56       5.6546      0.00000
     57       5.6546      0.00000
     58       5.6710      0.00000
     59       5.7902      0.00000
     60       6.0968      0.00000
     61       6.2385      0.00000
     62       6.2390      0.00000
     63       6.2518      0.00000
     64       6.3243      0.00000


--------------------------------------------------------------------------------------------------------


 soft charge-density along one line, spin component           1
         0         1         2         3         4         5         6         7         8         9
 total charge-density along one line

 pseudopotential strength for first ion, spin component:           1
 10.136  13.481  -0.000   0.036   0.000   0.000  -0.109  -0.000
 13.481  17.930  -0.000   0.048   0.000   0.000  -0.145  -0.000
 -0.000  -0.000  -4.347   0.000  -0.000   8.486  -0.000   0.000
  0.036   0.048   0.000  -4.381   0.000  -0.000   8.544  -0.000
  0.000   0.000  -0.000   0.000  -4.347   0.000  -0.000   8.486
  0.000   0.000   8.486  -0.000   0.000 -18.691   0.000  -0.000
 -0.109  -0.145  -0.000   8.544  -0.000   0.000 -18.792   0.000
 -0.000  -0.000   0.000  -0.000   8.486  -0.000   0.000 -18.691
 total augmentation occupancy for first ion, spin component:           1
  7.826  -3.569   0.000   2.079   0.000   0.000   0.394   0.000
 -3.569   1.991   0.000  -1.596   0.000   0.000  -0.239   0.000
  0.000   0.000   0.803   0.000   0.000   0.065   0.000   0.000
  2.079  -1.596   0.000   2.244   0.000  -0.000   0.215   0.000
  0.000   0.000   0.000   0.000   0.803   0.000   0.000   0.065
  0.000   0.000   0.065  -0.000   0.000   0.005  -0.000   0.000
  0.394  -0.239   0.000   0.215   0.000  -0.000   0.030  -0.000
  0.000   0.000   0.000   0.000   0.065   0.000  -0.000   0.005


------------------------ aborting loop because EDIFF is reached ----------------------------------------


    FORLOC:  cpu time      0.0021: real time      0.0021
    FORHF :  cpu time      0.6249: real time      0.6252
    FORNL :  cpu time      0.0095: real time      0.0096
    STRESS:  cpu time      0.0826: real time      0.0828
    FORCOR:  cpu time      0.0494: real time      0.0494
    OFIELD:  cpu time      0.0006: real time      0.0007
    FORVDW:  cpu time      0.0063: real time      0.0069

  FORCE on cell =-STRESS in cart. coord.  units (eV):
  Direction    XX          YY          ZZ          XY          YZ          ZX
  --------------------------------------------------------------------------------------
  Alpha Z     0.28751     0.28751     0.28751
  Ewald      56.20538    56.20538    80.47363     0.00000     0.00000    -0.00000
  Hartree   280.28075   280.28075   114.72844    -0.00000    -0.00000    -0.00000
  E(xc)     -33.10608   -33.10608   -32.54550    -0.00000     0.00000     0.00000
  Local    -471.96082  -471.96082  -305.59595    -0.00000    -0.00000    -0.00000
  n-local   -12.93427   -12.93443   -22.44021    -0.00000     0.00000     0.00000
  augment     5.78609     5.78609     5.42904     0.00000    -0.00000    -0.00000
  Kinetic   190.08282   190.08286   175.18940     0.00000     0.00000    -0.00000
  Fock      -14.71262   -14.71254   -17.77370    -0.00000     0.00000     0.00000
  vdW        -0.00102    -0.00102     0.00007     0.00000    -0.00000    -0.00000
  -------------------------------------------------------------------------------------
  Total      -0.07228    -0.07228    -2.24727     0.00000    -0.00000     0.00000
  in kB      -0.07619    -0.07619    -2.36905     0.00000    -0.00000     0.00000
  external pressure =       -0.84 kB  Pullay stress =        0.00 kB


 VOLUME and BASIS-vectors are now :
 -----------------------------------------------------------------------------
  energy-cutoff  :      600.00
  volume of cell :     1519.82
      direct lattice vectors                 reciprocal lattice vectors
     8.440984654  0.000000000  0.000000000     0.118469591  0.000000000  0.000000000
     0.000000000  8.440984654  0.000000000     0.000000000  0.118469591  0.000000000
     0.000000000  0.000000000 21.330738491     0.000000000  0.000000000  0.046880702

  length of vectors
     8.440984654  8.440984654 21.330738491     0.118469591  0.118469591  0.046880702


 FORCES acting on ions:
    Electron-Ion                     Ewald-Force                    Non-Local-Force
 -----------------------------------------------------------------------------------------------
   0.868E-13 0.597E-12 0.238E+03   0.268E-16 0.104E-15 -.265E+03   0.000E+00 0.165E-23 0.269E+02
   0.361E-12 0.868E-12 -.206E+03   0.145E-15 -.631E-17 0.265E+03   -.827E-24 0.000E+00 -.523E+02
 -----------------------------------------------------------------------------------------------
   0.448E-12 0.147E-11 0.323E+02   0.171E-15 0.981E-16 0.000E+00   -.827E-24 0.165E-23 -.255E+02


 POSITION                                       TOTAL-FORCE (eV/Angst)
 -----------------------------------------------------------------------------------
      4.22049      4.22049     16.31916        -0.000000     -0.000000      1.889185
      4.22049      4.22049     17.46598         0.000000      0.000000     -1.889185
 -----------------------------------------------------------------------------------
    total drift:                                0.000000      0.000000     -0.005104


--------------------------------------------------------------------------------------------------------



  FREE ENERGIE OF THE ION-ELECTRON SYSTEM (eV)
  ---------------------------------------------------
  free  energy   TOTEN  =       -19.27593454 eV

  energy  without entropy=      -19.27593454  energy(sigma->0) =      -19.27593454



--------------------------------------------------------------------------------------------------------


    POTLOK:  cpu time      0.1219: real time      0.1222


--------------------------------------------------------------------------------------------------------


     LOOP+:  cpu time    174.9294: real time    175.0831
    4ORBIT:  cpu time      0.0000: real time      0.0000

 total amount of memory used by VASP MPI-rank0   161490. kBytes
=======================================================================

   base      :      30000. kBytes
   nonl-proj :       2689. kBytes
   fftplans  :       7742. kBytes
   grid      :       7379. kBytes
   one-center:          3. kBytes
   HF        :          4. kBytes
   nonlr-proj:        275. kBytes
   wavefun   :        939. kBytes
   fock_wrk  :     112459. kBytes

  
  
 General timing and accounting informations for this job:
 ========================================================
  
                  Total CPU time used (sec):      208.491
                            User time (sec):      206.800
                          System time (sec):        1.691
                         Elapsed time (sec):      221.124
  
                   Maximum memory used (kb):      338636.
                   Average memory used (kb):          N/A
  
                          Minor page faults:       113392
                          Major page faults:         1189
                 Voluntary context switches:        11181
