 vasp.6.3.0 20Jan22 (build Apr  1 2022 16:44:48) complex                         
 executed on        HPECrayEX_GCC date 2022.09.24  12:35:27
 running  768 mpi-ranks, with    1 threads/rank
 distrk:  each k-point on  384 cores,    2 groups
 distr:  one band on NCORE=   4 cores,   96 groups


--------------------------------------------------------------------------------------------------------


 INCAR:
   SYSTEM = MgO-rocksalt
   ISMEAR = 0
   SIGMA = 0.05
   EDIFF = 1E-7
   ALGO = ALL
   ISTART = 0
   IBRION = 2
   NSW = 1000
   ISYM = 2
   ISIF = 3
   EDIFFG = -0.005
   GGA = MK
   LUSE_VDW = .TRUE.
   PARAM1 = 0.1234
   PARAM2 = 0.711357
   ZAB_VDW = -1.8867
   AGGAC = 0.0
   ENCUT = 600
   PREC = Normal
   LASPH = .TRUE.
   LREAL = .FALSE.
   ISPIN = 1
   NELM = 200
   NELMIN = 8
   NCORE = 4
   KPAR = 2
   LWAVE = .FALSE.
   LCHARG = .FALSE.

 POTCAR:    PAW_PBE Mg_pv 13Apr2007               
 POTCAR:    PAW_PBE O 08Apr2002                   
 -----------------------------------------------------------------------------
|                                                                             |
|               ----> ADVICE to this user running VASP <----                  |
|                                                                             |
|     You have switched on vdW-DFT.                                           |
|     This routine was written and supplied by Jiri Klimes. We recommend      |
|     that you carefully read and cite the following publications:            |
|       J. Klimes, D.R. Bowler, A. Michelides                                 |
|          J. Phys.: Cond Matt. 22 022201 (2010)                              |
|       J. Klimes, D.R. Bowler, A. Michelides                                 |
|          Phys. Rev. B. 83, 195131 (2011)                                    |
|     and references therein.                                                 |
|                                                                             |
 -----------------------------------------------------------------------------

 POTCAR:    PAW_PBE Mg_pv 13Apr2007               
   SHA256 =  f474ac0dd33840b9ae76c01d57fea79fdf77cdfbb07d5ade72c65f83c709b62b Mg_pv/POTCAR          
   COPYR  = (c) Copyright 13Apr2007 Georg Kresse                                                    
   COPYR  = This file is part of the software VASP. Any use, copying, and all other rights are regul
   COPYR  = If you do not have a valid VASP license, you may not use, copy or distribute this file. 
   VRHFIN =Mg: p6s2                                                                                 
   LEXCH  = PE                                                                                      
   EATOM  =  1056.7344 eV,   77.6678 Ry                                                             
                                                                                                    
   TITEL  = PAW_PBE Mg_pv 13Apr2007                                                                 
   LULTRA =        F    use ultrasoft PP ?                                                          
   IUNSCR =        1    unscreen: 0-lin 1-nonlin 2-no                                               
   RPACOR =    1.500    partial core radius                                                         
   POMASS =   24.305; ZVAL   =    8.000    mass and valenz                                          
   RCORE  =    2.000    outmost cutoff radius                                                       
   RWIGS  =    2.000; RWIGS  =    1.058    wigner-seitz radius (au A)                               
   ENMAX  =  403.929; ENMIN  =  302.947 eV                                                          
   RCLOC  =    1.506    cutoff for local pot                                                        
   LCOR   =        T    correct aug charges                                                         
   LPAW   =        T    paw PP                                                                      
   EAUG   =  758.780                                                                                
   DEXC   =    0.000                                                                                
   RMAX   =    2.045    core radius for proj-oper                                                   
   RAUG   =    1.300    factor for augmentation sphere                                              
   RDEP   =    2.025    radius for radial grids                                                     
   RDEPT  =    1.557    core radius for aug-charge                                                  
                                                                                                    
   Atomic configuration                                                                             
    5 entries                                                                                       
     n  l   j            E        occ.                                                              
     1  0  0.50     -1259.6230   2.0000                                                             
     2  0  0.50       -79.8442   2.0000                                                             
     2  1  1.50       -46.6121   6.0000                                                             
     3  0  0.50        -4.7055   2.0000                                                             
     3  2  1.50        -1.3606   0.0000                                                             
   Description                                                                                      
     l       E           TYP  RCUT    TYP  RCUT                                                     
     1    -46.6121073     23  1.600                                                                 
     1      2.7211652     23  1.600                                                                 
     0     -4.7054661     23  2.000                                                                 
     0     61.2262170     23  2.000                                                                 
     2     -1.3605826     23  2.000                                                                 
  local pseudopotential read in
  partial core-charges read in
  partial kinetic energy density read in
  atomic valenz-charges read in
  non local Contribution for L=           1  read in
    real space projection operators read in
  non local Contribution for L=           1  read in
    real space projection operators read in
  non local Contribution for L=           0  read in
    real space projection operators read in
  non local Contribution for L=           0  read in
    real space projection operators read in
  non local Contribution for L=           2  read in
    real space projection operators read in
    PAW grid and wavefunctions read in

   number of l-projection  operators is LMAX  =           5
   number of lm-projection operators is LMMAX =          13

 POTCAR:    PAW_PBE O 08Apr2002                   
   SHA256 =  818f92134a0a090dccd8ba1447fa70422a3b330e708bb4f08108d8ae51209ddf O/POTCAR              
   COPYR  = (c) Copyright 08Apr2002 Georg Kresse                                                    
   COPYR  = This file is part of the software VASP. Any use, copying, and all other rights are regul
   COPYR  = If you do not have a valid VASP license, you may not use, copy or distribute this file. 
   VRHFIN =O: s2p4                                                                                  
   LEXCH  = PE                                                                                      
   EATOM  =   432.3788 eV,   31.7789 Ry                                                             
                                                                                                    
   TITEL  = PAW_PBE O 08Apr2002                                                                     
   LULTRA =        F    use ultrasoft PP ?                                                          
   IUNSCR =        1    unscreen: 0-lin 1-nonlin 2-no                                               
   RPACOR =    1.200    partial core radius                                                         
   POMASS =   16.000; ZVAL   =    6.000    mass and valenz                                          
   RCORE  =    1.520    outmost cutoff radius                                                       
   RWIGS  =    1.550; RWIGS  =    0.820    wigner-seitz radius (au A)                               
   ENMAX  =  400.000; ENMIN  =  300.000 eV                                                          
   ICORE  =        2    local potential                                                             
   LCOR   =        T    correct aug charges                                                         
   LPAW   =        T    paw PP                                                                      
   EAUG   =  605.392                                                                                
   DEXC   =    0.000                                                                                
   RMAX   =    1.553    core radius for proj-oper                                                   
   RAUG   =    1.300    factor for augmentation sphere                                              
   RDEP   =    1.550    radius for radial grids                                                     
   RDEPT  =    1.329    core radius for aug-charge                                                  
                                                                                                    
   Atomic configuration                                                                             
    4 entries                                                                                       
     n  l   j            E        occ.                                                              
     1  0  0.50      -514.6923   2.0000                                                             
     2  0  0.50       -23.9615   2.0000                                                             
     2  1  0.50        -9.0305   4.0000                                                             
     3  2  1.50        -9.5241   0.0000                                                             
   Description                                                                                      
     l       E           TYP  RCUT    TYP  RCUT                                                     
     0    -23.9615318     23  1.200                                                                 
     0     -9.5240782     23  1.200                                                                 
     1     -9.0304911     23  1.520                                                                 
     1      8.1634956     23  1.520                                                                 
     2     -9.5240782      7  1.500                                                                 
  local pseudopotential read in
  partial core-charges read in
  partial kinetic energy density read in
  kinetic energy density of atom read in
  atomic valenz-charges read in
  non local Contribution for L=           0  read in
    real space projection operators read in
  non local Contribution for L=           0  read in
    real space projection operators read in
  non local Contribution for L=           1  read in
    real space projection operators read in
  non local Contribution for L=           1  read in
    real space projection operators read in
    PAW grid and wavefunctions read in

   number of l-projection  operators is LMAX  =           4
   number of lm-projection operators is LMMAX =           8

 -----------------------------------------------------------------------------
|                                                                             |
|               ----> ADVICE to this user running VASP <----                  |
|                                                                             |
|     You enforced a specific xc type in the INCAR file but a different       |
|     type was found in the POTCAR file.                                      |
|     I HOPE YOU KNOW WHAT YOU ARE DOING!                                     |
|                                                                             |
 -----------------------------------------------------------------------------

  PAW_PBE Mg_pv 13Apr2007               :
 energy of atom  1       EATOM=-1056.7344
 kinetic energy error for atom=    0.0221 (will be added to EATOM!!)
  PAW_PBE O 08Apr2002                   :
 energy of atom  2       EATOM= -432.3788
 kinetic energy error for atom=    0.0168 (will be added to EATOM!!)


 POSCAR: Mg4 O4
  positions in direct lattice
  velocities in cartesian coordinates
 exchange correlation table for  LEXCH =       43
   RHO(1)=    0.500       N(1)  =     2000
   RHO(2)=  100.500       N(2)  =     4000



--------------------------------------------------------------------------------------------------------


 ion  position               nearest neighbor table
   1  0.000  0.000  0.000-   5 2.11   7 2.11   8 2.11   7 2.11   8 2.11   5 2.11
   2  0.000  0.500  0.500-   6 2.11   7 2.11   8 2.11   8 2.11   7 2.11   6 2.11
   3  0.500  0.000  0.500-   5 2.11   6 2.11   7 2.11   5 2.11   6 2.11   7 2.11
   4  0.500  0.500  0.000-   5 2.11   6 2.11   8 2.11   6 2.11   5 2.11   8 2.11
   5  0.500  0.000  0.000-   1 2.11   3 2.11   4 2.11   3 2.11   4 2.11   1 2.11
   6  0.500  0.500  0.500-   2 2.11   3 2.11   4 2.11   4 2.11   3 2.11   2 2.11
   7  0.000  0.000  0.500-   1 2.11   2 2.11   3 2.11   1 2.11   2 2.11   3 2.11
   8  0.000  0.500  0.000-   1 2.11   2 2.11   4 2.11   2 2.11   1 2.11   4 2.11

  LATTYP: Found a simple cubic cell.
 ALAT       =     4.2202911310
  
  Lattice vectors:
  
 A1 = (   4.2202911310,   0.0000000000,   0.0000000000)
 A2 = (   0.0000000000,   4.2202911310,  -0.0000000000)
 A3 = (  -0.0000000000,   0.0000000000,   4.2202911310)


Analysis of symmetry for initial positions (statically):
=====================================================================
 Subroutine PRICEL returns following result:
 
  LATTYP: Found a face centered cubic cell.
 ALAT       =     4.2202911310
  
  Lattice vectors:
  
 A1 = (   2.1101455655,  -2.1101455655,   0.0000000000)
 A2 = (   2.1101455655,   0.0000000000,   2.1101455655)
 A3 = (   0.0000000000,  -2.1101455655,   2.1101455655)
 
   4 primitive cells build up your supercell.
 

 Routine SETGRP: Setting up the symmetry group for a 
 simple cubic supercell.


 Subroutine GETGRP returns: Found 48 space group operations
 (whereof 48 operations were pure point group operations)
 out of a pool of 48 trial point group operations.


The static configuration has the point symmetry O_h .


Analysis of symmetry for dynamics (positions and initial velocities):
=====================================================================
 Subroutine PRICEL returns following result:
 
  LATTYP: Found a face centered cubic cell.
 ALAT       =     4.2202911310
  
  Lattice vectors:
  
 A1 = (   2.1101455655,  -2.1101455655,   0.0000000000)
 A2 = (   2.1101455655,   0.0000000000,   2.1101455655)
 A3 = (   0.0000000000,  -2.1101455655,   2.1101455655)
 
   4 primitive cells build up your supercell.
 

 Routine SETGRP: Setting up the symmetry group for a 
 simple cubic supercell.


 Subroutine GETGRP returns: Found 48 space group operations
 (whereof 48 operations were pure point group operations)
 out of a pool of 48 trial point group operations.


The dynamic configuration has the point symmetry O_h .


 Subroutine INISYM returns: Found 48 space group operations
 (whereof 48 operations are pure point group operations),
 and found     4 'primitive' translations


----------------------------------------------------------------------------------------

                                     Primitive cell                                     

  volume of cell :      18.7918

  direct lattice vectors                    reciprocal lattice vectors
     2.110145566 -2.110145566  0.000000000     0.236950478 -0.236950478 -0.236950478
     2.110145566  0.000000000  2.110145566     0.236950478  0.236950478  0.236950478
     0.000000000 -2.110145566  2.110145566    -0.236950478 -0.236950478  0.236950478

  length of vectors
     2.984196477  2.984196477  2.984196477     0.410410266  0.410410266  0.410410266

  position of ions in fractional coordinates (direct lattice)
     0.000000000  0.000000000  0.000000000
     0.500000000  0.500000000  0.500000000

  ion indices of the primitive-cell ions
   primitive index   ion index
                 1           1
                 2           5

----------------------------------------------------------------------------------------



 KPOINTS: pymatgen v2020.8.13 with grid density = 

Automatic generation of k-mesh.
 Grid dimensions read from file:
 generate k-points for:    8    8    8

 Generating k-lattice:

  Cartesian coordinates                     Fractional coordinates (reciprocal lattice)
     0.029618810  0.000000000  0.000000000     0.125000000  0.000000000  0.000000000
     0.000000000  0.029618810 -0.000000000     0.000000000  0.125000000  0.000000000
    -0.000000000  0.000000000  0.029618810     0.000000000  0.000000000  0.125000000

  Length of vectors
     0.029618810  0.029618810  0.029618810

  Shift w.r.t. Gamma in fractional coordinates (k-lattice)
     0.000000000  0.000000000  0.000000000

 
 Subroutine IBZKPT returns following result:
 ===========================================
 
 Found     35 irreducible k-points:
 
 Following reciprocal coordinates:
            Coordinates               Weight
  0.000000  0.000000  0.000000      1.000000
  0.125000  0.000000  0.000000      6.000000
  0.250000  0.000000  0.000000      6.000000
  0.375000  0.000000  0.000000      6.000000
  0.500000  0.000000  0.000000      3.000000
  0.125000  0.125000  0.000000     12.000000
  0.250000  0.125000  0.000000     24.000000
  0.375000  0.125000  0.000000     24.000000
  0.500000  0.125000  0.000000     12.000000
  0.250000  0.250000  0.000000     12.000000
  0.375000  0.250000  0.000000     24.000000
  0.500000  0.250000  0.000000     12.000000
  0.375000  0.375000  0.000000     12.000000
  0.500000  0.375000  0.000000     12.000000
  0.500000  0.500000  0.000000      3.000000
  0.125000  0.125000  0.125000      8.000000
  0.250000  0.125000  0.125000     24.000000
  0.375000  0.125000  0.125000     24.000000
  0.500000  0.125000  0.125000     12.000000
  0.250000  0.250000  0.125000     24.000000
  0.375000  0.250000  0.125000     48.000000
  0.500000  0.250000  0.125000     24.000000
  0.375000  0.375000  0.125000     24.000000
  0.500000  0.375000  0.125000     24.000000
  0.500000  0.500000  0.125000      6.000000
  0.250000  0.250000  0.250000      8.000000
  0.375000  0.250000  0.250000     24.000000
  0.500000  0.250000  0.250000     12.000000
  0.375000  0.375000  0.250000     24.000000
  0.500000  0.375000  0.250000     24.000000
  0.500000  0.500000  0.250000      6.000000
  0.375000  0.375000  0.375000      8.000000
  0.500000  0.375000  0.375000     12.000000
  0.500000  0.500000  0.375000      6.000000
  0.500000  0.500000  0.500000      1.000000
 
 Following cartesian coordinates:
            Coordinates               Weight
  0.000000  0.000000  0.000000      1.000000
  0.029619  0.000000  0.000000      6.000000
  0.059238  0.000000  0.000000      6.000000
  0.088856  0.000000  0.000000      6.000000
  0.118475  0.000000  0.000000      3.000000
  0.029619  0.029619  0.000000     12.000000
  0.059238  0.029619  0.000000     24.000000
  0.088856  0.029619  0.000000     24.000000
  0.118475  0.029619  0.000000     12.000000
  0.059238  0.059238  0.000000     12.000000
  0.088856  0.059238  0.000000     24.000000
  0.118475  0.059238  0.000000     12.000000
  0.088856  0.088856  0.000000     12.000000
  0.118475  0.088856  0.000000     12.000000
  0.118475  0.118475  0.000000      3.000000
  0.029619  0.029619  0.029619      8.000000
  0.059238  0.029619  0.029619     24.000000
  0.088856  0.029619  0.029619     24.000000
  0.118475  0.029619  0.029619     12.000000
  0.059238  0.059238  0.029619     24.000000
  0.088856  0.059238  0.029619     48.000000
  0.118475  0.059238  0.029619     24.000000
  0.088856  0.088856  0.029619     24.000000
  0.118475  0.088856  0.029619     24.000000
  0.118475  0.118475  0.029619      6.000000
  0.059238  0.059238  0.059238      8.000000
  0.088856  0.059238  0.059238     24.000000
  0.118475  0.059238  0.059238     12.000000
  0.088856  0.088856  0.059238     24.000000
  0.118475  0.088856  0.059238     24.000000
  0.118475  0.118475  0.059238      6.000000
  0.088856  0.088856  0.088856      8.000000
  0.118475  0.088856  0.088856     12.000000
  0.118475  0.118475  0.088856      6.000000
  0.118475  0.118475  0.118475      1.000000
 


--------------------------------------------------------------------------------------------------------




 Dimension of arrays:
   k-points           NKPTS =     35   k-points in BZ     NKDIM =     35   number of bands    NBANDS=     96
   number of dos      NEDOS =    301   number of ions     NIONS =      8
   non local maximal  LDIM  =      5   non local SUM 2l+1 LMDIM =     13
   total plane-waves  NPLWV =  21952
   max r-space proj   IRMAX =      1   max aug-charges    IRDMAX=   5954
   dimension x,y,z NGX =    28 NGY =   28 NGZ =   28
   dimension x,y,z NGXF=    56 NGYF=   56 NGZF=   56
   support grid    NGXF=    56 NGYF=   56 NGZF=   56
   ions per type =               4   4
   NGX,Y,Z   is equivalent  to a cutoff of  11.03, 11.03, 11.03 a.u.
   NGXF,Y,Z  is equivalent  to a cutoff of  22.06, 22.06, 22.06 a.u.

 SYSTEM =  MgO-rocksalt                            
 POSCAR =  Mg4 O4                                  

 Startparameter for this run:
   NWRITE =      2    write-flag & timer
   PREC   = normal    normal or accurate (medium, high low for compatibility)
   ISTART =      0    job   : 0-new  1-cont  2-samecut
   ICHARG =      2    charge: 1-file 2-atom 10-const
   ISPIN  =      1    spin polarized calculation?
   LNONCOLLINEAR =      F non collinear calculations
   LSORBIT =      F    spin-orbit coupling
   INIWAV =      1    electr: 0-lowe 1-rand  2-diag
   LASPH  =      T    aspherical Exc in radial PAW
 Electronic Relaxation 1
   ENCUT  =  600.0 eV  44.10 Ry    6.64 a.u.   8.43  8.43  8.43*2*pi/ulx,y,z
   ENINI  =  600.0     initial cutoff
   ENAUG  =  758.8 eV  augmentation charge cutoff
   NELM   =    200;   NELMIN=  8; NELMDL= -5     # of ELM steps 
   EDIFF  = 0.1E-06   stopping-criterion for ELM
   LREAL  =      F    real-space projection
   NLSPLINE    = F    spline interpolate recip. space projectors
   LCOMPAT=      F    compatible to vasp.4.4
   GGA_COMPAT  = T    GGA compatible to vasp.4.4-vasp.4.6
   LMAXPAW     = -100 max onsite density
   LMAXMIX     =    2 max onsite mixed and CHGCAR
   VOSKOWN=      0    Vosko Wilk Nusair interpolation
   ROPT   =    0.00000   0.00000
 Ionic relaxation
   EDIFFG = -.5E-02   stopping-criterion for IOM
   NSW    =   1000    number of steps for IOM
   NBLOCK =      1;   KBLOCK =   1000    inner block; outer block 
   IBRION =      2    ionic relax: 0-MD 1-quasi-New 2-CG
   NFREE  =      1    steps in history (QN), initial steepest desc. (CG)
   ISIF   =      3    stress and relaxation
   IWAVPR =     11    prediction:  0-non 1-charg 2-wave 3-comb
   ISYM   =      2    0-nonsym 1-usesym 2-fastsym
   LCORR  =      T    Harris-Foulkes like correction to forces

   POTIM  = 0.5000    time-step for ionic-motion
   TEIN   =    0.0    initial temperature
   TEBEG  =    0.0;   TEEND  =   0.0 temperature during run
   SMASS  =  -3.00    Nose mass-parameter (am)
   estimated Nose-frequenzy (Omega)   =  0.10E-29 period in steps = 0.13E+47 mass=  -0.407E-27a.u.
   SCALEE = 1.0000    scale energy and forces
   NPACO  =    256;   APACO  = 10.0  distance and # of slots for P.C.
   PSTRESS=    0.0 pullay stress

  Mass of Ions in am
   POMASS =  24.30 16.00
  Ionic Valenz
   ZVAL   =   8.00  6.00
  Atomic Wigner-Seitz radii
   RWIGS  =  -1.00 -1.00
  virtual crystal weights 
   VCA    =   1.00  1.00
   NELECT =      56.0000    total number of electrons
   NUPDOWN=      -1.0000    fix difference up-down

 DOS related values:
   EMIN   =  10.00;   EMAX   =-10.00  energy-range for DOS
   EFERMI =   0.00
   ISMEAR =     0;   SIGMA  =   0.05  broadening in eV -4-tet -1-fermi 0-gaus

 Electronic relaxation 2 (details)
   IALGO  =     58    algorithm
   LDIAG  =      T    sub-space diagonalisation (order eigenvalues)
   LSUBROT=      F    optimize rotation matrix (better conditioning)
   TURBO    =      0    0=normal 1=particle mesh
   IRESTART =      0    0=no restart 2=restart with 2 vectors
   NREBOOT  =      0    no. of reboots
   NMIN     =      0    reboot dimension
   EREF     =   0.00    reference energy to select bands
   IMIX   =      4    mixing-type and parameters
     AMIX     =   0.40;   BMIX     =  1.00
     AMIX_MAG =   1.60;   BMIX_MAG =  1.00
     AMIN     =   0.10
     WC   =   100.;   INIMIX=   1;  MIXPRE=   1;  MAXMIX= -45

 Intra band minimization:
   WEIMIN = 0.0010     energy-eigenvalue tresh-hold
   EBREAK =  0.26E-09  absolut break condition
   DEPER  =   0.30     relativ break condition  

   TIME   =   0.40     timestep for ELM

  volume/ion in A,a.u.               =       9.40        63.41
  Fermi-wavevector in a.u.,A,eV,Ry     =   1.484095  2.804533 29.967357  2.202539
  Thomas-Fermi vector in A             =   2.597675

 Write flags
   LWAVE        =      F    write WAVECAR
   LDOWNSAMPLE  =      F    k-point downsampling of WAVECAR
   LCHARG       =      F    write CHGCAR
   LVTOT        =      F    write LOCPOT, total local potential
   LVHAR        =      F    write LOCPOT, Hartree potential only
   LELF         =      F    write electronic localiz. function (ELF)
   LORBIT       =      0    0 simple, 1 ext, 2 COOP (PROOUT), +10 PAW based schemes


 Dipole corrections
   LMONO  =      F    monopole corrections only (constant potential shift)
   LDIPOL =      F    correct potential (dipole corrections)
   IDIPOL =      0    1-x, 2-y, 3-z, 4-all directions 
   EPSILON=  1.0000000 bulk dielectric constant

 Exchange correlation treatment:
   GGA     =    MK    GGA type
   LEXCH   =    43    internal setting for exchange type
   LIBXC   =     F    Libxc                    
   VOSKOWN =     0    Vosko Wilk Nusair interpolation
   LHFCALC =     F    Hartree Fock is set to
   LHFONE  =     F    Hartree Fock one center treatment
   AEXX    =    0.0000 exact exchange contribution

 vdW DFT:
   LUSE_VDW   =     T    switch on vdW DFT
   Zab_VDW    =******    correlation parameter
   PARAM1     =0.1234
   PARAM2     =0.7114
   PARAM3     =0.0000
   -- rVV10 --
   BPARAM     = 6.3000
   CPARAM     = 0.0093

 Linear response parameters
   LEPSILON=     F    determine dielectric tensor
   LRPA    =     F    only Hartree local field effects (RPA)
   LNABLA  =     F    use nabla operator in PAW spheres
   LVEL    =     F    velocity operator in full k-point grid
   CSHIFT  =0.1000    complex shift for real part using Kramers Kronig
   OMEGAMAX=  -1.0    maximum frequency
   DEG_THRESHOLD= 0.2000000E-02 threshold for treating states as degnerate
   RTIME   =   -0.100 relaxation time in fs
  (WPLASMAI=    0.000 imaginary part of plasma frequency in eV, 0.658/RTIME)
   DFIELD  = 0.0000000 0.0000000 0.0000000 field for delta impulse in time

  Optional k-point grid parameters
   LKPOINTS_OPT  =     F    use optional k-point grid
   KPOINTS_OPT_MODE=     1    mode for optional k-point grid

 Orbital magnetization related:
   ORBITALMAG=     F  switch on orbital magnetization
   LCHIMAG   =     F  perturbation theory with respect to B field
   DQ        =  0.001000  dq finite difference perturbation B field
   LLRAUG    =     F  two centre corrections for induced B field



--------------------------------------------------------------------------------------------------------


 conjugate gradient relaxation of ions
 charge density and potential will be updated during run
 non-spin polarized calculation
 Conjugate gradient for all bands (Freysoldt, et al. PRB 79, 241103 (2009))
 preconditioned conjugated gradient                                        
 perform sub-space diagonalisation
    before iterative eigenvector-optimisation
 modified Broyden-mixing scheme, WC =      100.0
 initial mixing is a Kerker type mixing with AMIX =  0.4000 and BMIX =      1.0000
 Hartree-type preconditioning will be used
 using additional bands           68
 reciprocal scheme for non local part
 use partial core corrections
 no Harris-corrections to forces 
 use gradient corrections 
 use of overlap-Matrix (Vanderbilt PP)
 Gauss-broadening in eV      SIGMA  =   0.05


--------------------------------------------------------------------------------------------------------


  energy-cutoff  :      600.00
  volume of cell :       75.17
      direct lattice vectors                 reciprocal lattice vectors
     4.220291131  0.000000000  0.000000000     0.236950478  0.000000000  0.000000000
     0.000000000  4.220291131 -0.000000000     0.000000000  0.236950478 -0.000000000
    -0.000000000  0.000000000  4.220291131    -0.000000000  0.000000000  0.236950478

  length of vectors
     4.220291131  4.220291131  4.220291131     0.236950478  0.236950478  0.236950478



 k-points in units of 2pi/SCALE and weight: pymatgen v2020.8.13 with grid density = 
   0.00000000  0.00000000  0.00000000       0.002
   0.02961881  0.00000000  0.00000000       0.012
   0.05923762  0.00000000  0.00000000       0.012
   0.08885643  0.00000000  0.00000000       0.012
   0.11847524  0.00000000  0.00000000       0.006
   0.02961881  0.02961881  0.00000000       0.023
   0.05923762  0.02961881  0.00000000       0.047
   0.08885643  0.02961881  0.00000000       0.047
   0.11847524  0.02961881  0.00000000       0.023
   0.05923762  0.05923762  0.00000000       0.023
   0.08885643  0.05923762  0.00000000       0.047
   0.11847524  0.05923762  0.00000000       0.023
   0.08885643  0.08885643  0.00000000       0.023
   0.11847524  0.08885643  0.00000000       0.023
   0.11847524  0.11847524  0.00000000       0.006
   0.02961881  0.02961881  0.02961881       0.016
   0.05923762  0.02961881  0.02961881       0.047
   0.08885643  0.02961881  0.02961881       0.047
   0.11847524  0.02961881  0.02961881       0.023
   0.05923762  0.05923762  0.02961881       0.047
   0.08885643  0.05923762  0.02961881       0.094
   0.11847524  0.05923762  0.02961881       0.047
   0.08885643  0.08885643  0.02961881       0.047
   0.11847524  0.08885643  0.02961881       0.047
   0.11847524  0.11847524  0.02961881       0.012
   0.05923762  0.05923762  0.05923762       0.016
   0.08885643  0.05923762  0.05923762       0.047
   0.11847524  0.05923762  0.05923762       0.023
   0.08885643  0.08885643  0.05923762       0.047
   0.11847524  0.08885643  0.05923762       0.047
   0.11847524  0.11847524  0.05923762       0.012
   0.08885643  0.08885643  0.08885643       0.016
   0.11847524  0.08885643  0.08885643       0.023
   0.11847524  0.11847524  0.08885643       0.012
   0.11847524  0.11847524  0.11847524       0.002

 k-points in reciprocal lattice and weights: pymatgen v2020.8.13 with grid density = 
   0.00000000  0.00000000  0.00000000       0.002
   0.12500000  0.00000000  0.00000000       0.012
   0.25000000  0.00000000  0.00000000       0.012
   0.37500000  0.00000000  0.00000000       0.012
   0.50000000  0.00000000  0.00000000       0.006
   0.12500000  0.12500000  0.00000000       0.023
   0.25000000  0.12500000  0.00000000       0.047
   0.37500000  0.12500000  0.00000000       0.047
   0.50000000  0.12500000  0.00000000       0.023
   0.25000000  0.25000000  0.00000000       0.023
   0.37500000  0.25000000  0.00000000       0.047
   0.50000000  0.25000000  0.00000000       0.023
   0.37500000  0.37500000  0.00000000       0.023
   0.50000000  0.37500000  0.00000000       0.023
   0.50000000  0.50000000  0.00000000       0.006
   0.12500000  0.12500000  0.12500000       0.016
   0.25000000  0.12500000  0.12500000       0.047
   0.37500000  0.12500000  0.12500000       0.047
   0.50000000  0.12500000  0.12500000       0.023
   0.25000000  0.25000000  0.12500000       0.047
   0.37500000  0.25000000  0.12500000       0.094
   0.50000000  0.25000000  0.12500000       0.047
   0.37500000  0.37500000  0.12500000       0.047
   0.50000000  0.37500000  0.12500000       0.047
   0.50000000  0.50000000  0.12500000       0.012
   0.25000000  0.25000000  0.25000000       0.016
   0.37500000  0.25000000  0.25000000       0.047
   0.50000000  0.25000000  0.25000000       0.023
   0.37500000  0.37500000  0.25000000       0.047
   0.50000000  0.37500000  0.25000000       0.047
   0.50000000  0.50000000  0.25000000       0.012
   0.37500000  0.37500000  0.37500000       0.016
   0.50000000  0.37500000  0.37500000       0.023
   0.50000000  0.50000000  0.37500000       0.012
   0.50000000  0.50000000  0.50000000       0.002

 position of ions in fractional coordinates (direct lattice) 
   0.00000000  0.00000000  0.00000000
   0.00000000  0.50000000  0.50000000
   0.50000000  0.00000000  0.50000000
   0.50000000  0.50000000  0.00000000
   0.50000000  0.00000000  0.00000000
   0.50000000  0.50000000  0.50000000
   0.00000000  0.00000000  0.50000000
   0.00000000  0.50000000  0.00000000

 position of ions in cartesian coordinates  (Angst):
   0.00000000  0.00000000  0.00000000
   0.00000000  2.11014557  2.11014557
   2.11014557  0.00000000  2.11014557
   2.11014557  2.11014557  0.00000000
   2.11014557  0.00000000  0.00000000
   2.11014557  2.11014557  2.11014557
   0.00000000  0.00000000  2.11014557
   0.00000000  2.11014557  0.00000000



--------------------------------------------------------------------------------------------------------


 k-point   1 :   0.0000 0.0000 0.0000  plane waves:    2517
 k-point   2 :   0.1250 0.0000 0.0000  plane waves:    2513
 k-point   3 :   0.2500 0.0000 0.0000  plane waves:    2501
 k-point   4 :   0.3750 0.0000 0.0000  plane waves:    2497
 k-point   5 :   0.5000 0.0000 0.0000  plane waves:    2496
 k-point   6 :   0.1250 0.1250 0.0000  plane waves:    2514
 k-point   7 :   0.2500 0.1250 0.0000  plane waves:    2507
 k-point   8 :   0.3750 0.1250 0.0000  plane waves:    2510
 k-point   9 :   0.5000 0.1250 0.0000  plane waves:    2514
 k-point  10 :   0.2500 0.2500 0.0000  plane waves:    2512
 k-point  11 :   0.3750 0.2500 0.0000  plane waves:    2526
 k-point  12 :   0.5000 0.2500 0.0000  plane waves:    2522
 k-point  13 :   0.3750 0.3750 0.0000  plane waves:    2522
 k-point  14 :   0.5000 0.3750 0.0000  plane waves:    2508
 k-point  15 :   0.5000 0.5000 0.0000  plane waves:    2496
 k-point  16 :   0.1250 0.1250 0.1250  plane waves:    2523
 k-point  17 :   0.2500 0.1250 0.1250  plane waves:    2511
 k-point  18 :   0.3750 0.1250 0.1250  plane waves:    2514
 k-point  19 :   0.5000 0.1250 0.1250  plane waves:    2508
 k-point  20 :   0.2500 0.2500 0.1250  plane waves:    2511
 k-point  21 :   0.3750 0.2500 0.1250  plane waves:    2512
 k-point  22 :   0.5000 0.2500 0.1250  plane waves:    2500
 k-point  23 :   0.3750 0.3750 0.1250  plane waves:    2516
 k-point  24 :   0.5000 0.3750 0.1250  plane waves:    2504
 k-point  25 :   0.5000 0.5000 0.1250  plane waves:    2512
 k-point  26 :   0.2500 0.2500 0.2500  plane waves:    2494
 k-point  27 :   0.3750 0.2500 0.2500  plane waves:    2509
 k-point  28 :   0.5000 0.2500 0.2500  plane waves:    2516
 k-point  29 :   0.3750 0.3750 0.2500  plane waves:    2494
 k-point  30 :   0.5000 0.3750 0.2500  plane waves:    2504
 k-point  31 :   0.5000 0.5000 0.2500  plane waves:    2484
 k-point  32 :   0.3750 0.3750 0.3750  plane waves:    2485
 k-point  33 :   0.5000 0.3750 0.3750  plane waves:    2492
 k-point  34 :   0.5000 0.5000 0.3750  plane waves:    2480
 k-point  35 :   0.5000 0.5000 0.5000  plane waves:    2512

 maximum and minimum number of plane-waves per node :       644      614

 maximum number of plane-waves:      2526
 maximum index in each direction: 
   IXMAX=    8   IYMAX=    8   IZMAX=    8
   IXMIN=   -8   IYMIN=   -8   IZMIN=   -8


 parallel 3D FFT for wavefunctions:
    minimum data exchange during FFTs selected (reduces bandwidth)
 parallel 3D FFT for charge:
    minimum data exchange during FFTs selected (reduces bandwidth)


 total amount of memory used by VASP MPI-rank0    37050. kBytes
=======================================================================

   base      :      30000. kBytes
   nonl-proj :       4978. kBytes
   fftplans  :        364. kBytes
   grid      :        402. kBytes
   one-center:         16. kBytes
   wavefun   :       1290. kBytes

     INWAV:  cpu time      0.0001: real time      0.0004
 Broyden mixing: mesh for mixing (old mesh)
   NGX = 17   NGY = 17   NGZ = 17
  (NGX  = 56   NGY  = 56   NGZ  = 56)
  gives a total of   4913 points

 initial charge density was supplied:
 charge density of overlapping atoms calculated
 number of electron      56.0000000 magnetization 
 keeping initial charge density in first step


--------------------------------------------------------------------------------------------------------


 Maximum index for augmentation-charges          377 (set IRDMAX)


--------------------------------------------------------------------------------------------------------


 First call to EWALD:  gamma=   0.420
 Maximum number of real-space cells 3x 3x 3
 Maximum number of reciprocal cells 3x 3x 3

    FEWALD:  cpu time      0.0009: real time      0.0009


--------------------------------------- Iteration      1(   1)  ---------------------------------------


vdW kernel read from vdw_kernel.bindat
  0.0000  0.2424  0.5071  0.7962  1.1119  1.4567  1.8333  2.2446  2.6937  3.1842
  3.7199  4.3049  4.9438  5.6415  6.4036  7.2358  8.1446  9.1372 10.2212 11.4050
 12.6979 14.1099 15.6519 17.3360 19.1751 21.1837 23.3773 25.7729 28.3892 31.2465
 34.3669 37.7748 41.4965 45.5611 50.0000

    POTLOK:  cpu time      0.9389: real time      0.9406
    SETDIJ:  cpu time      0.0584: real time      0.0585
    TRIAL :  cpu time      2.9802: real time      2.9809
    CORREC:  cpu time      0.0009: real time      0.0010
    --------------------------------------------
      LOOP:  cpu time      3.9800: real time      3.9831

 eigenvalue-minimisations  :  6720
 total energy-change (2. order) : 0.6541654E+02  (-0.4724453E+04)
 number of electron      56.0000000 magnetization 
 augmentation part       56.0000000 magnetization 

 Free energy of the ion-electron system (eV)
  ---------------------------------------------------
  alpha Z        PSCENC =       276.51686969
  Ewald energy   TEWEN  =     -3842.63946400
  -Hartree energ DENC   =     -1181.54719517
  -exchange      EXHF   =         0.00000000
  -V(xc)+E(xc)   XCENC  =       219.67724508
  PAW double counting   =      3985.47819159    -4460.37869082
  entropy T*S    EENTRO =        -0.00000000
  eigenvalues    EBANDS =      -904.67521581
  atomic energy  EATOM  =      5972.98480027
  ---------------------------------------------------
  free energy    TOTEN  =        65.41654083 eV

  energy without entropy =       65.41654083  energy(sigma->0) =       65.41654083


--------------------------------------------------------------------------------------------------------




--------------------------------------- Iteration      1(   2)  ---------------------------------------


    TRIAL :  cpu time      7.2821: real time      7.2840
    CORREC:  cpu time      0.0005: real time      0.0005
    --------------------------------------------
      LOOP:  cpu time      7.2874: real time      7.2977

 eigenvalue-minimisations  : 10080
 total energy-change (2. order) :-0.1059522E+03  (-0.1059522E+03)
 number of electron      56.0000000 magnetization 
 augmentation part       56.0000000 magnetization 

 Free energy of the ion-electron system (eV)
  ---------------------------------------------------
  alpha Z        PSCENC =       276.51686969
  Ewald energy   TEWEN  =     -3842.63946400
  -Hartree energ DENC   =     -1181.54719517
  -exchange      EXHF   =         0.00000000
  -V(xc)+E(xc)   XCENC  =       219.67724508
  PAW double counting   =      3985.47819159    -4460.37869082
  entropy T*S    EENTRO =        -0.00000000
  eigenvalues    EBANDS =     -1010.62736986
  atomic energy  EATOM  =      5972.98480027
  ---------------------------------------------------
  free energy    TOTEN  =       -40.53561322 eV

  energy without entropy =      -40.53561322  energy(sigma->0) =      -40.53561322


--------------------------------------------------------------------------------------------------------




--------------------------------------- Iteration      1(   3)  ---------------------------------------


    TRIAL :  cpu time      2.8329: real time      2.8337
    CORREC:  cpu time      0.0005: real time      0.0005
    --------------------------------------------
      LOOP:  cpu time      2.8382: real time      2.8472

 eigenvalue-minimisations  :  6720
 total energy-change (2. order) :-0.1608952E+00  (-0.1608952E+00)
 number of electron      56.0000000 magnetization 
 augmentation part       56.0000000 magnetization 

 Free energy of the ion-electron system (eV)
  ---------------------------------------------------
  alpha Z        PSCENC =       276.51686969
  Ewald energy   TEWEN  =     -3842.63946400
  -Hartree energ DENC   =     -1181.54719517
  -exchange      EXHF   =         0.00000000
  -V(xc)+E(xc)   XCENC  =       219.67724508
  PAW double counting   =      3985.47819159    -4460.37869082
  entropy T*S    EENTRO =        -0.00000000
  eigenvalues    EBANDS =     -1010.78826506
  atomic energy  EATOM  =      5972.98480027
  ---------------------------------------------------
  free energy    TOTEN  =       -40.69650841 eV

  energy without entropy =      -40.69650841  energy(sigma->0) =      -40.69650841


--------------------------------------------------------------------------------------------------------




--------------------------------------- Iteration      1(   4)  ---------------------------------------


    TRIAL :  cpu time     14.1961: real time     14.2000
    CORREC:  cpu time      0.0005: real time      0.0005
    --------------------------------------------
      LOOP:  cpu time     14.2098: real time     14.2141

 eigenvalue-minimisations  : 13056
 total energy-change (2. order) :-0.1030856E-03  (-0.1030856E-03)
 number of electron      56.0000000 magnetization 
 augmentation part       56.0000000 magnetization 

 Free energy of the ion-electron system (eV)
  ---------------------------------------------------
  alpha Z        PSCENC =       276.51686969
  Ewald energy   TEWEN  =     -3842.63946400
  -Hartree energ DENC   =     -1181.54719517
  -exchange      EXHF   =         0.00000000
  -V(xc)+E(xc)   XCENC  =       219.67724508
  PAW double counting   =      3985.47819159    -4460.37869082
  entropy T*S    EENTRO =        -0.00000000
  eigenvalues    EBANDS =     -1010.78836814
  atomic energy  EATOM  =      5972.98480027
  ---------------------------------------------------
  free energy    TOTEN  =       -40.69661150 eV

  energy without entropy =      -40.69661150  energy(sigma->0) =      -40.69661150


--------------------------------------------------------------------------------------------------------




--------------------------------------- Iteration      1(   5)  ---------------------------------------


    TRIAL :  cpu time      2.7216: real time      2.7224
    CORREC:  cpu time      0.0005: real time      0.0005
    CHARGE:  cpu time      0.0104: real time      0.0105
    --------------------------------------------
      LOOP:  cpu time      2.7367: real time      2.7470

 eigenvalue-minimisations  :  6720
 total energy-change (2. order) :-0.6320988E-09  (-0.6310036E-09)
 number of electron      55.9999922 magnetization 
 augmentation part       19.8289053 magnetization 

 Free energy of the ion-electron system (eV)
  ---------------------------------------------------
  alpha Z        PSCENC =       276.51686969
  Ewald energy   TEWEN  =     -3842.63946400
  -Hartree energ DENC   =     -1181.54719517
  -exchange      EXHF   =         0.00000000
  -V(xc)+E(xc)   XCENC  =       219.67724508
  PAW double counting   =      3985.47819159    -4460.37869082
  entropy T*S    EENTRO =        -0.00000000
  eigenvalues    EBANDS =     -1010.78836814
  atomic energy  EATOM  =      5972.98480027
  ---------------------------------------------------
  free energy    TOTEN  =       -40.69661150 eV

  energy without entropy =      -40.69661150  energy(sigma->0) =      -40.69661150


--------------------------------------------------------------------------------------------------------




--------------------------------------- Iteration      1(   6)  ---------------------------------------


    POTLOK:  cpu time      0.4980: real time      0.4983
    SETDIJ:  cpu time      0.2086: real time      0.2086
    TRIAL :  cpu time     12.2823: real time     12.2859
    CORREC:  cpu time      1.2607: real time      1.2614
    CHARGE:  cpu time      0.0085: real time      0.0083
    --------------------------------------------
      LOOP:  cpu time     14.2627: real time     14.2765

 eigenvalue-minimisations  :     0
 total energy-change (2. order) : 0.1770537E+02  (-0.1085040E+02)
 number of electron      55.9999931 magnetization 
 augmentation part       19.3718359 magnetization 

 Free energy of the ion-electron system (eV)
  ---------------------------------------------------
  alpha Z        PSCENC =       276.51686969
  Ewald energy   TEWEN  =     -3842.63946400
  -Hartree energ DENC   =     -1333.41932061
  -exchange      EXHF   =         0.00000000
  -V(xc)+E(xc)   XCENC  =       233.05279857
  PAW double counting   =      4516.84911230    -4985.18859083
  entropy T*S    EENTRO =        -0.00000000
  eigenvalues    EBANDS =      -861.14745132
  atomic energy  EATOM  =      5972.98480027
  ---------------------------------------------------
  free energy    TOTEN  =       -22.99124593 eV

  energy without entropy =      -22.99124593  energy(sigma->0) =      -22.99124593


--------------------------------------------------------------------------------------------------------




--------------------------------------- Iteration      1(   7)  ---------------------------------------


    POTLOK:  cpu time      0.5522: real time      0.5523
    SETDIJ:  cpu time      0.1674: real time      0.1674
    TRIAL :  cpu time      0.4395: real time      0.4396
    CORREC:  cpu time      1.2070: real time      1.2076
    CHARGE:  cpu time      0.0084: real time      0.0084
    --------------------------------------------
      LOOP:  cpu time      2.3879: real time      2.3894

 eigenvalue-minimisations  :     0
 total energy-change (2. order) :-0.1070205E+02  (-0.6002278E+00)
 number of electron      55.9999932 magnetization 
 augmentation part       19.3078320 magnetization 

 Free energy of the ion-electron system (eV)
  ---------------------------------------------------
  alpha Z        PSCENC =       276.51686969
  Ewald energy   TEWEN  =     -3842.63946400
  -Hartree energ DENC   =     -1226.77039507
  -exchange      EXHF   =         0.00000000
  -V(xc)+E(xc)   XCENC  =       224.66853770
  PAW double counting   =      4466.89780120    -4940.72695241
  entropy T*S    EENTRO =        -0.00000000
  eigenvalues    EBANDS =      -964.62448834
  atomic energy  EATOM  =      5972.98480027
  ---------------------------------------------------
  free energy    TOTEN  =       -33.69329096 eV

  energy without entropy =      -33.69329096  energy(sigma->0) =      -33.69329096


--------------------------------------------------------------------------------------------------------




--------------------------------------- Iteration      1(   8)  ---------------------------------------


    POTLOK:  cpu time      0.6574: real time      0.6574
    SETDIJ:  cpu time      0.0197: real time      0.0197
    TRIAL :  cpu time      0.4374: real time      0.4376
    CORREC:  cpu time      1.0885: real time      1.0887
    CHARGE:  cpu time      0.0086: real time      0.0087
    --------------------------------------------
      LOOP:  cpu time      2.2161: real time      2.2248

 eigenvalue-minimisations  :     0
 total energy-change (2. order) :-0.6042067E+00  (-0.3434445E-01)
 number of electron      55.9999931 magnetization 
 augmentation part       19.3387322 magnetization 

 Free energy of the ion-electron system (eV)
  ---------------------------------------------------
  alpha Z        PSCENC =       276.51686969
  Ewald energy   TEWEN  =     -3842.63946400
  -Hartree energ DENC   =     -1224.93986998
  -exchange      EXHF   =         0.00000000
  -V(xc)+E(xc)   XCENC  =       224.31257760
  PAW double counting   =      4381.87792246    -4854.43162701
  entropy T*S    EENTRO =        -0.00000000
  eigenvalues    EBANDS =      -967.97870668
  atomic energy  EATOM  =      5972.98480027
  ---------------------------------------------------
  free energy    TOTEN  =       -34.29749764 eV

  energy without entropy =      -34.29749764  energy(sigma->0) =      -34.29749764


--------------------------------------------------------------------------------------------------------




--------------------------------------- Iteration      1(   9)  ---------------------------------------


    POTLOK:  cpu time      0.6057: real time      0.6060
    SETDIJ:  cpu time      0.1031: real time      0.1031
    TRIAL :  cpu time      0.4371: real time      0.4371
    CORREC:  cpu time      1.1003: real time      1.1005
    CHARGE:  cpu time      0.0083: real time      0.0083
    --------------------------------------------
      LOOP:  cpu time      2.2588: real time      2.2681

 eigenvalue-minimisations  :     0
 total energy-change (2. order) :-0.3436250E-01  (-0.2185895E-02)
 number of electron      55.9999931 magnetization 
 augmentation part       19.3387594 magnetization 

 Free energy of the ion-electron system (eV)
  ---------------------------------------------------
  alpha Z        PSCENC =       276.51686969
  Ewald energy   TEWEN  =     -3842.63946400
  -Hartree energ DENC   =     -1226.05323815
  -exchange      EXHF   =         0.00000000
  -V(xc)+E(xc)   XCENC  =       224.37676788
  PAW double counting   =      4376.04770011    -4850.08026919
  entropy T*S    EENTRO =        -0.00000000
  eigenvalues    EBANDS =      -965.48502677
  atomic energy  EATOM  =      5972.98480027
  ---------------------------------------------------
  free energy    TOTEN  =       -34.33186015 eV

  energy without entropy =      -34.33186015  energy(sigma->0) =      -34.33186015


--------------------------------------------------------------------------------------------------------




--------------------------------------- Iteration      1(  10)  ---------------------------------------


    POTLOK:  cpu time      0.5955: real time      0.5962
    SETDIJ:  cpu time      0.0687: real time      0.0687
    TRIAL :  cpu time      0.4378: real time      0.4378
    CORREC:  cpu time      1.1488: real time      1.1489
    CHARGE:  cpu time      0.0082: real time      0.0084
    --------------------------------------------
      LOOP:  cpu time      2.2721: real time      2.2737

 eigenvalue-minimisations  :     0
 total energy-change (2. order) :-0.2189222E-02  (-0.1917797E-03)
 number of electron      55.9999931 magnetization 
 augmentation part       19.3381276 magnetization 

 Free energy of the ion-electron system (eV)
  ---------------------------------------------------
  alpha Z        PSCENC =       276.51686969
  Ewald energy   TEWEN  =     -3842.63946400
  -Hartree energ DENC   =     -1225.73582471
  -exchange      EXHF   =         0.00000000
  -V(xc)+E(xc)   XCENC  =       224.34951944
  PAW double counting   =      4372.19086011    -4846.14875269
  entropy T*S    EENTRO =        -0.00000000
  eigenvalues    EBANDS =      -965.85205748
  atomic energy  EATOM  =      5972.98480027
  ---------------------------------------------------
  free energy    TOTEN  =       -34.33404937 eV

  energy without entropy =      -34.33404937  energy(sigma->0) =      -34.33404937


--------------------------------------------------------------------------------------------------------




--------------------------------------- Iteration      1(  11)  ---------------------------------------


    POTLOK:  cpu time      0.5567: real time      0.5567
    SETDIJ:  cpu time      0.1938: real time      0.1938
    TRIAL :  cpu time      0.4381: real time      0.4384
    CORREC:  cpu time      1.2258: real time      1.2260
    CHARGE:  cpu time      0.0084: real time      0.0084
    --------------------------------------------
      LOOP:  cpu time      2.4260: real time      2.4363

 eigenvalue-minimisations  :     0
 total energy-change (2. order) :-0.1920678E-03  (-0.4810203E-04)
 number of electron      55.9999931 magnetization 
 augmentation part       19.3382665 magnetization 

 Free energy of the ion-electron system (eV)
  ---------------------------------------------------
  alpha Z        PSCENC =       276.51686969
  Ewald energy   TEWEN  =     -3842.63946400
  -Hartree energ DENC   =     -1225.67519464
  -exchange      EXHF   =         0.00000000
  -V(xc)+E(xc)   XCENC  =       224.34318079
  PAW double counting   =      4370.99607523    -4844.91842545
  entropy T*S    EENTRO =        -0.00000000
  eigenvalues    EBANDS =      -965.94208333
  atomic energy  EATOM  =      5972.98480027
  ---------------------------------------------------
  free energy    TOTEN  =       -34.33424143 eV

  energy without entropy =      -34.33424143  energy(sigma->0) =      -34.33424143


--------------------------------------------------------------------------------------------------------




--------------------------------------- Iteration      1(  12)  ---------------------------------------


    POTLOK:  cpu time      0.6410: real time      0.6412
    SETDIJ:  cpu time      0.1013: real time      0.1013
    TRIAL :  cpu time      0.4354: real time      0.4355
    CORREC:  cpu time      1.1331: real time      1.1333
    CHARGE:  cpu time      0.0082: real time      0.0082
    --------------------------------------------
      LOOP:  cpu time      2.3319: real time      2.3328

 eigenvalue-minimisations  :     0
 total energy-change (2. order) :-0.4773961E-04  (-0.1307830E-04)
 number of electron      55.9999931 magnetization 
 augmentation part       19.3382922 magnetization 

 Free energy of the ion-electron system (eV)
  ---------------------------------------------------
  alpha Z        PSCENC =       276.51686969
  Ewald energy   TEWEN  =     -3842.63946400
  -Hartree energ DENC   =     -1225.70332723
  -exchange      EXHF   =         0.00000000
  -V(xc)+E(xc)   XCENC  =       224.34379846
  PAW double counting   =      4371.07803521    -4845.00689932
  entropy T*S    EENTRO =        -0.00000000
  eigenvalues    EBANDS =      -965.90810227
  atomic energy  EATOM  =      5972.98480027
  ---------------------------------------------------
  free energy    TOTEN  =       -34.33428917 eV

  energy without entropy =      -34.33428917  energy(sigma->0) =      -34.33428917


--------------------------------------------------------------------------------------------------------




--------------------------------------- Iteration      1(  13)  ---------------------------------------


    POTLOK:  cpu time      0.7550: real time      0.7553
    SETDIJ:  cpu time      0.0006: real time      0.0006
    TRIAL :  cpu time      0.4367: real time      0.4367
    CORREC:  cpu time      1.2765: real time      1.2769
    CHARGE:  cpu time      0.0083: real time      0.0083
    --------------------------------------------
      LOOP:  cpu time      2.4807: real time      2.4913

 eigenvalue-minimisations  :     0
 total energy-change (2. order) :-0.1295827E-04  (-0.2518556E-05)
 number of electron      55.9999931 magnetization 
 augmentation part       19.3382302 magnetization 

 Free energy of the ion-electron system (eV)
  ---------------------------------------------------
  alpha Z        PSCENC =       276.51686969
  Ewald energy   TEWEN  =     -3842.63946400
  -Hartree energ DENC   =     -1225.71587092
  -exchange      EXHF   =         0.00000000
  -V(xc)+E(xc)   XCENC  =       224.34433698
  PAW double counting   =      4371.33077997    -4845.25975381
  entropy T*S    EENTRO =        -0.00000000
  eigenvalues    EBANDS =      -965.89600031
  atomic energy  EATOM  =      5972.98480027
  ---------------------------------------------------
  free energy    TOTEN  =       -34.33430213 eV

  energy without entropy =      -34.33430213  energy(sigma->0) =      -34.33430213


--------------------------------------------------------------------------------------------------------




--------------------------------------- Iteration      1(  14)  ---------------------------------------


    POTLOK:  cpu time      0.6506: real time      0.6507
    SETDIJ:  cpu time      0.1883: real time      0.1886
    TRIAL :  cpu time      0.4378: real time      0.4378
    CORREC:  cpu time      1.1564: real time      1.1566
    CHARGE:  cpu time      0.0082: real time      0.0082
    --------------------------------------------
      LOOP:  cpu time      2.4463: real time      2.4554

 eigenvalue-minimisations  :     0
 total energy-change (2. order) :-0.2548143E-05  (-0.2088096E-06)
 number of electron      55.9999931 magnetization 
 augmentation part       19.3382400 magnetization 

 Free energy of the ion-electron system (eV)
  ---------------------------------------------------
  alpha Z        PSCENC =       276.51686969
  Ewald energy   TEWEN  =     -3842.63946400
  -Hartree energ DENC   =     -1225.71466217
  -exchange      EXHF   =         0.00000000
  -V(xc)+E(xc)   XCENC  =       224.34420170
  PAW double counting   =      4371.37398752    -4845.29878320
  entropy T*S    EENTRO =        -0.00000000
  eigenvalues    EBANDS =      -965.90125450
  atomic energy  EATOM  =      5972.98480027
  ---------------------------------------------------
  free energy    TOTEN  =       -34.33430468 eV

  energy without entropy =      -34.33430468  energy(sigma->0) =      -34.33430468


--------------------------------------------------------------------------------------------------------




--------------------------------------- Iteration      1(  15)  ---------------------------------------


    POTLOK:  cpu time      0.6269: real time      0.6272
    SETDIJ:  cpu time      0.0620: real time      0.0620
    TRIAL :  cpu time      0.4379: real time      0.4380
    CORREC:  cpu time      1.0233: real time      1.0234
    CHARGE:  cpu time      0.0084: real time      0.0084
    --------------------------------------------
      LOOP:  cpu time      2.1718: real time      2.1728

 eigenvalue-minimisations  :     0
 total energy-change (2. order) :-0.2168699E-06  (-0.2156564E-07)
 number of electron      55.9999931 magnetization 
 augmentation part       19.3382496 magnetization 

 Free energy of the ion-electron system (eV)
  ---------------------------------------------------
  alpha Z        PSCENC =       276.51686969
  Ewald energy   TEWEN  =     -3842.63946400
  -Hartree energ DENC   =     -1225.71541521
  -exchange      EXHF   =         0.00000000
  -V(xc)+E(xc)   XCENC  =       224.34425065
  PAW double counting   =      4371.39085078    -4845.31545304
  entropy T*S    EENTRO =        -0.00000000
  eigenvalues    EBANDS =      -965.90074404
  atomic energy  EATOM  =      5972.98480027
  ---------------------------------------------------
  free energy    TOTEN  =       -34.33430490 eV

  energy without entropy =      -34.33430490  energy(sigma->0) =      -34.33430490


--------------------------------------------------------------------------------------------------------




--------------------------------------- Iteration      1(  16)  ---------------------------------------


    POTLOK:  cpu time      0.6510: real time      0.6513
    SETDIJ:  cpu time      0.1188: real time      0.1188
    TRIAL :  cpu time      0.4371: real time      0.4376
    CORREC:  cpu time      1.0730: real time      1.0732
    EDDIAG:  cpu time      0.3565: real time      0.3568
    CHARGE:  cpu time      0.0082: real time      0.0082
    --------------------------------------------
      LOOP:  cpu time      2.6485: real time      2.6594

 eigenvalue-minimisations  :     0
 total energy-change (2. order) :-0.2190609E-07  (-0.3284974E-08)
 number of electron      55.9999931 magnetization 
 augmentation part       19.3382530 magnetization 

 Free energy of the ion-electron system (eV)
  ---------------------------------------------------
  alpha Z        PSCENC =       276.51686969
  Ewald energy   TEWEN  =     -3842.63946400
  -Hartree energ DENC   =     -1225.71580574
  -exchange      EXHF   =         0.00000000
  -V(xc)+E(xc)   XCENC  =       224.34428014
  PAW double counting   =      4371.39670915    -4845.32167168
  entropy T*S    EENTRO =        -0.00000000
  eigenvalues    EBANDS =      -965.90002275
  atomic energy  EATOM  =      5972.98480027
  ---------------------------------------------------
  free energy    TOTEN  =       -34.33430492 eV

  energy without entropy =      -34.33430492  energy(sigma->0) =      -34.33430492


--------------------------------------------------------------------------------------------------------


  average scaling for gradient   1.3961


 average (electrostatic) potential at core
  the test charge radii are     0.8294  0.7215
  (the norm of the test charge is              1.0000)
       1 -41.3533       2 -41.3533       3 -41.3533       4 -41.3533       5 -70.1055
       6 -70.1055       7 -70.1055       8 -70.1055



 E-fermi :   2.9353     XC(G=0): -11.5151     alpha+bet :-12.7088

 Fermi energy:         2.9352704086

 k-point     1 :       0.0000    0.0000    0.0000
  band No.  band energies     occupation 
      1     -36.5346      2.00000
      2     -36.5346      2.00000
      3     -36.5346      2.00000
      4     -36.4908      2.00000
      5     -36.4908      2.00000
      6     -36.4908      2.00000
      7     -36.4908      2.00000
      8     -36.4908      2.00000
      9     -36.4908      2.00000
     10     -36.4622      2.00000
     11     -36.4622      2.00000
     12     -36.4622      2.00000
     13     -14.5122      2.00000
     14     -12.9686      2.00000
     15     -12.9686      2.00000
     16     -12.9686      2.00000
     17      -1.3941      2.00000
     18      -1.3941      2.00000
     19      -1.3941      2.00000
     20       1.2924      2.00000
     21       1.2924      2.00000
     22       1.2924      2.00000
     23       1.2924      2.00000
     24       1.2924      2.00000
     25       1.2924      2.00000
     26       2.6259      2.00000
     27       2.6259      2.00000
     28       2.6259      2.00000
     29       7.3849      0.00000
     30      11.8013      0.00000
     31      11.8013      0.00000
     32      11.8013      0.00000
     33      12.5255      0.00000
     34      12.5255      0.00000
     35      12.5255      0.00000
     36      15.7065      0.00000
     37      15.7065      0.00000
     38      15.7065      0.00000
     39      18.3827      0.00000
     40      18.3827      0.00000
     41      18.3827      0.00000
     42      21.5038      0.00000
     43      21.5038      0.00000
     44      21.5038      0.00000
     45      21.5038      0.00000
     46      21.5038      0.00000
     47      21.5038      0.00000
     48      22.4621      0.00000
     49      24.0167      0.00000
     50      24.0167      0.00000
     51      26.7899      0.00000
     52      26.7899      0.00000
     53      26.7899      0.00000
     54      27.7568      0.00000
     55      27.7568      0.00000
     56      27.7568      0.00000
     57      29.3140      0.00000
     58      29.3140      0.00000
     59      29.3140      0.00000
     60      33.2585      0.00000
     61      33.2585      0.00000
     62      33.2585      0.00000
     63      33.2585      0.00000
     64      33.2585      0.00000
     65      33.2585      0.00000
     66      36.8735      0.00000
     67      36.8735      0.00000
     68      36.8735      0.00000
     69      39.5733      0.00000
     70      39.5733      0.00000
     71      39.5733      0.00000
     72      39.5733      0.00000
     73      39.5733      0.00000
     74      39.5733      0.00000
     75      40.7781      0.00000
     76      40.7781      0.00000
     77      40.7781      0.00000
     78      41.3907      0.00000
     79      41.5030      0.00000
     80      41.5030      0.00000
     81      41.5030      0.00000
     82      43.8307      0.00000
     83      43.8307      0.00000
     84      43.8307      0.00000
     85      43.8307      0.00000
     86      43.8307      0.00000
     87      43.8307      0.00000
     88      45.4008      0.00000
     89      45.4008      0.00000
     90      45.4008      0.00000
     91      46.1967      0.00000
     92      46.1967      0.00000
     93      46.1967      0.00000
     94      51.5461      0.00000
     95      51.5461      0.00000
     96      51.5461      0.00000

 k-point     2 :       0.1250    0.0000    0.0000
  band No.  band energies     occupation 
      1     -36.5328      2.00000
      2     -36.5328      2.00000
      3     -36.5320      2.00000
      4     -36.4924      2.00000
      5     -36.4924      2.00000
      6     -36.4911      2.00000
      7     -36.4911      2.00000
      8     -36.4896      2.00000
      9     -36.4896      2.00000
     10     -36.4656      2.00000
     11     -36.4633      2.00000
     12     -36.4633      2.00000
     13     -14.4546      2.00000
     14     -13.0276      2.00000
     15     -12.9590      2.00000
     16     -12.9590      2.00000
     17      -1.3195      2.00000
     18      -1.3195      2.00000
     19      -1.3078      2.00000
     20       1.1433      2.00000
     21       1.1433      2.00000
     22       1.2267      2.00000
     23       1.2267      2.00000
     24       1.3350      2.00000
     25       1.3350      2.00000
     26       2.3176      2.00000
     27       2.5647      2.00000
     28       2.5647      2.00000
     29       7.7353      0.00000
     30      11.9294      0.00000
     31      12.0401      0.00000
     32      12.0401      0.00000
     33      12.5017      0.00000
     34      12.7617      0.00000
     35      12.7617      0.00000
     36      15.6247      0.00000
     37      15.6247      0.00000
     38      15.7214      0.00000
     39      17.6173      0.00000
     40      18.5177      0.00000
     41      18.5177      0.00000
     42      21.0040      0.00000
     43      21.0040      0.00000
     44      21.3905      0.00000
     45      21.3905      0.00000
     46      21.6611      0.00000
     47      21.6611      0.00000
     48      23.0645      0.00000
     49      23.4900      0.00000
     50      24.1365      0.00000
     51      26.9763      0.00000
     52      26.9763      0.00000
     53      27.6174      0.00000
     54      28.0430      0.00000
     55      28.0472      0.00000
     56      28.0472      0.00000
     57      28.8880      0.00000
     58      29.5363      0.00000
     59      29.5363      0.00000
     60      31.4962      0.00000
     61      31.4962      0.00000
     62      33.1860      0.00000
     63      33.1860      0.00000
     64      33.3520      0.00000
     65      33.3520      0.00000
     66      37.5615      0.00000
     67      38.0250      0.00000
     68      38.0250      0.00000
     69      38.5398      0.00000
     70      38.5398      0.00000
     71      39.1290      0.00000
     72      39.1290      0.00000
     73      39.9335      0.00000
     74      40.0423      0.00000
     75      40.0423      0.00000
     76      40.6023      0.00000
     77      40.6023      0.00000
     78      41.0723      0.00000
     79      41.7424      0.00000
     80      42.2954      0.00000
     81      42.2954      0.00000
     82      42.4369      0.00000
     83      43.1137      0.00000
     84      43.1137      0.00000
     85      43.4997      0.00000
     86      43.4997      0.00000
     87      45.0591      0.00000
     88      45.0591      0.00000
     89      45.8672      0.00000
     90      45.8672      0.00000
     91      46.9300      0.00000
     92      46.9300      0.00000
     93      50.0793      0.00000
     94      51.0281      0.00000
     95      51.0282      0.00000
     96      51.2681      0.00000

 k-point     3 :       0.2500    0.0000    0.0000
  band No.  band energies     occupation 
      1     -36.5278      2.00000
      2     -36.5278      2.00000
      3     -36.5250      2.00000
      4     -36.4971      2.00000
      5     -36.4971      2.00000
      6     -36.4919      2.00000
      7     -36.4919      2.00000
      8     -36.4865      2.00000
      9     -36.4865      2.00000
     10     -36.4738      2.00000
     11     -36.4663      2.00000
     12     -36.4663      2.00000
     13     -14.2898      2.00000
     14     -13.1963      2.00000
     15     -12.9358      2.00000
     16     -12.9358      2.00000
     17      -1.0995      2.00000
     18      -1.0995      2.00000
     19      -1.0450      2.00000
     20       0.7523      2.00000
     21       0.7523      2.00000
     22       1.0728      2.00000
     23       1.0728      2.00000
     24       1.4592      2.00000
     25       1.4592      2.00000
     26       1.6047      2.00000
     27       2.3962      2.00000
     28       2.3962      2.00000
     29       8.5788      0.00000
     30      12.2656      0.00000
     31      12.3128      0.00000
     32      12.6698      0.00000
     33      12.6698      0.00000
     34      13.4026      0.00000
     35      13.4026      0.00000
     36      15.3716      0.00000
     37      15.3716      0.00000
     38      15.9812      0.00000
     39      16.2564      0.00000
     40      18.8919      0.00000
     41      18.8919      0.00000
     42      19.8693      0.00000
     43      19.8693      0.00000
     44      21.0708      0.00000
     45      21.0708      0.00000
     46      21.3758      0.00000
     47      22.1606      0.00000
     48      22.1606      0.00000
     49      24.4937      0.00000
     50      25.6386      0.00000
     51      27.5420      0.00000
     52      27.5420      0.00000
     53      27.9281      0.00000
     54      28.4751      0.00000
     55      28.4751      0.00000
     56      28.7814      0.00000
     57      28.8378      0.00000
     58      28.8378      0.00000
     59      28.9179      0.00000
     60      30.2228      0.00000
     61      30.2228      0.00000
     62      32.6371      0.00000
     63      32.6371      0.00000
     64      33.6120      0.00000
     65      33.6120      0.00000
     66      37.4483      0.00000
     67      37.4483      0.00000
     68      37.9688      0.00000
     69      38.2036      0.00000
     70      38.2036      0.00000
     71      38.8518      0.00000
     72      38.8518      0.00000
     73      38.9318      0.00000
     74      39.3070      0.00000
     75      40.0249      0.00000
     76      40.0781      0.00000
     77      40.0781      0.00000
     78      41.0527      0.00000
     79      41.0527      0.00000
     80      42.0065      0.00000
     81      42.0065      0.00000
     82      42.7999      0.00000
     83      42.7999      0.00000
     84      44.1234      0.00000
     85      45.0558      0.00000
     86      45.0558      0.00000
     87      45.8201      0.00000
     88      45.8201      0.00000
     89      46.7603      0.00000
     90      46.7603      0.00000
     91      48.7407      0.00000
     92      48.7407      0.00000
     93      49.8600      0.00000
     94      49.8600      0.00000
     95      50.4430      0.00000
     96      50.4430      0.00000

 k-point     4 :       0.3750    0.0000    0.0000
  band No.  band energies     occupation 
      1     -36.5207      2.00000
      2     -36.5207      2.00000
      3     -36.5141      2.00000
      4     -36.5042      2.00000
      5     -36.5042      2.00000
      6     -36.4923      2.00000
      7     -36.4923      2.00000
      8     -36.4863      2.00000
      9     -36.4820      2.00000
     10     -36.4820      2.00000
     11     -36.4709      2.00000
     12     -36.4709      2.00000
     13     -14.0414      2.00000
     14     -13.4489      2.00000
     15     -12.9125      2.00000
     16     -12.9125      2.00000
     17      -0.7465      2.00000
     18      -0.7465      2.00000
     19      -0.5986      2.00000
     20       0.2393      2.00000
     21       0.2393      2.00000
     22       0.7847      2.00000
     23       0.9245      2.00000
     24       0.9245      2.00000
     25       1.6532      2.00000
     26       1.6532      2.00000
     27       2.1582      2.00000
     28       2.1582      2.00000
     29       9.6219      0.00000
     30      11.6266      0.00000
     31      12.9489      0.00000
     32      13.4884      0.00000
     33      13.4884      0.00000
     34      14.2299      0.00000
     35      14.2299      0.00000
     36      14.9287      0.00000
     37      14.9287      0.00000
     38      14.9473      0.00000
     39      16.7698      0.00000
     40      18.6684      0.00000
     41      18.6684      0.00000
     42      19.4256      0.00000
     43      19.4256      0.00000
     44      19.6325      0.00000
     45      20.5941      0.00000
     46      20.5941      0.00000
     47      23.0762      0.00000
     48      23.0762      0.00000
     49      25.0807      0.00000
     50      26.4315      0.00000
     51      26.4315      0.00000
     52      26.8576      0.00000
     53      28.2602      0.00000
     54      28.4937      0.00000
     55      28.4937      0.00000
     56      28.7157      0.00000
     57      28.7157      0.00000
     58      29.6502      0.00000
     59      29.9069      0.00000
     60      31.0096      0.00000
     61      31.0096      0.00000
     62      31.3281      0.00000
     63      31.3281      0.00000
     64      33.9500      0.00000
     65      33.9500      0.00000
     66      34.4539      0.00000
     67      37.3466      0.00000
     68      37.3466      0.00000
     69      37.5188      0.00000
     70      37.5188      0.00000
     71      38.1833      0.00000
     72      38.8597      0.00000
     73      39.2550      0.00000
     74      39.2550      0.00000
     75      39.4350      0.00000
     76      39.4350      0.00000
     77      40.9863      0.00000
     78      40.9863      0.00000
     79      41.6862      0.00000
     80      42.1568      0.00000
     81      42.1568      0.00000
     82      42.1977      0.00000
     83      42.1977      0.00000
     84      44.7828      0.00000
     85      44.7828      0.00000
     86      46.2868      0.00000
     87      47.6434      0.00000
     88      47.7973      0.00000
     89      47.7973      0.00000
     90      48.7583      0.00000
     91      48.7583      0.00000
     92      48.9246      0.00000
     93      48.9246      0.00000
     94      49.3202      0.00000
     95      49.3202      0.00000
     96      51.1591      0.00000

 k-point     5 :       0.5000    0.0000    0.0000
  band No.  band energies     occupation 
      1     -36.5122      2.00000
      2     -36.5122      2.00000
      3     -36.5122      2.00000
      4     -36.5122      2.00000
      5     -36.5006      2.00000
      6     -36.5006      2.00000
      7     -36.4925      2.00000
      8     -36.4925      2.00000
      9     -36.4767      2.00000
     10     -36.4767      2.00000
     11     -36.4767      2.00000
     12     -36.4767      2.00000
     13     -13.7461      2.00000
     14     -13.7461      2.00000
     15     -12.9027      2.00000
     16     -12.9027      2.00000
     17      -0.2852      2.00000
     18      -0.2852      2.00000
     19      -0.2852      2.00000
     20      -0.2852      2.00000
     21       0.0231      2.00000
     22       0.0231      2.00000
     23       0.8645      2.00000
     24       0.8645      2.00000
     25       1.8966      2.00000
     26       1.8966      2.00000
     27       1.8966      2.00000
     28       1.8966      2.00000
     29      10.6861      0.00000
     30      10.6861      0.00000
     31      13.8318      0.00000
     32      13.8318      0.00000
     33      14.2865      0.00000
     34      14.2865      0.00000
     35      14.2865      0.00000
     36      14.2865      0.00000
     37      14.6987      0.00000
     38      14.6987      0.00000
     39      18.0433      0.00000
     40      18.0433      0.00000
     41      18.0677      0.00000
     42      18.0677      0.00000
     43      20.0220      0.00000
     44      20.0220      0.00000
     45      20.0220      0.00000
     46      20.0220      0.00000
     47      24.4900      0.00000
     48      24.4900      0.00000
     49      24.4900      0.00000
     50      24.4900      0.00000
     51      25.8807      0.00000
     52      25.8807      0.00000
     53      28.7933      0.00000
     54      28.7933      0.00000
     55      29.8033      0.00000
     56      29.8033      0.00000
     57      29.8033      0.00000
     58      29.8033      0.00000
     59      30.1712      0.00000
     60      30.1712      0.00000
     61      31.2120      0.00000
     62      31.2120      0.00000
     63      31.3464      0.00000
     64      31.3464      0.00000
     65      34.1322      0.00000
     66      34.1322      0.00000
     67      36.9769      0.00000
     68      36.9769      0.00000
     69      38.1123      0.00000
     70      38.1123      0.00000
     71      38.2986      0.00000
     72      38.2986      0.00000
     73      38.2986      0.00000
     74      38.2986      0.00000
     75      40.1272      0.00000
     76      40.1272      0.00000
     77      40.1272      0.00000
     78      40.1272      0.00000
     79      41.9697      0.00000
     80      41.9697      0.00000
     81      43.4341      0.00000
     82      43.4341      0.00000
     83      43.4341      0.00000
     84      43.4341      0.00000
     85      44.4935      0.00000
     86      44.4935      0.00000
     87      48.3108      0.00000
     88      48.3108      0.00000
     89      48.5067      0.00000
     90      48.5067      0.00000
     91      48.5067      0.00000
     92      48.5067      0.00000
     93      48.8670      0.00000
     94      48.8670      0.00000
     95      52.6693      0.00000
     96      52.6693      0.00000

 k-point     6 :       0.1250    0.1250    0.0000
  band No.  band energies     occupation 
      1     -36.5312      2.00000
      2     -36.5307      2.00000
      3     -36.5307      2.00000
      4     -36.4964      2.00000
      5     -36.4912      2.00000
      6     -36.4912      2.00000
      7     -36.4896      2.00000
      8     -36.4896      2.00000
      9     -36.4890      2.00000
     10     -36.4703      2.00000
     11     -36.4646      2.00000
     12     -36.4627      2.00000
     13     -14.3982      2.00000
     14     -13.0154      2.00000
     15     -13.0154      2.00000
     16     -12.9518      2.00000
     17      -1.2490      2.00000
     18      -1.2490      2.00000
     19      -1.2456      2.00000
     20       0.8444      2.00000
     21       1.1886      2.00000
[...]
     70      35.5016      0.00000
     71      35.5016      0.00000
     72      36.5187      0.00000
     73      36.5187      0.00000
     74      37.2220      0.00000
     75      37.2220      0.00000
     76      37.2220      0.00000
     77      39.3737      0.00000
     78      44.0643      0.00000
     79      44.0643      0.00000
     80      44.0643      0.00000
     81      47.2453      0.00000
     82      47.2453      0.00000
     83      47.3652      0.00000
     84      47.3652      0.00000
     85      47.3652      0.00000
     86      48.2215      0.00000
     87      48.2215      0.00000
     88      48.2215      0.00000
     89      48.7895      0.00000
     90      48.7895      0.00000
     91      48.7895      0.00000
     92      49.0570      0.00000
     93      51.4520      0.00000
     94      51.4520      0.00000
     95      51.4520      0.00000
     96      53.4679      0.00000

 k-point    33 :       0.5000    0.3750    0.3750
  band No.  band energies     occupation 
      1     -36.5435      2.00000
      2     -36.5435      2.00000
      3     -36.5405      2.00000
      4     -36.5405      2.00000
      5     -36.4770      2.00000
      6     -36.4770      2.00000
      7     -36.4727      2.00000
      8     -36.4727      2.00000
      9     -36.4718      2.00000
     10     -36.4718      2.00000
     11     -36.4716      2.00000
     12     -36.4716      2.00000
     13     -13.2744      2.00000
     14     -13.2744      2.00000
     15     -13.1461      2.00000
     16     -13.1461      2.00000
     17      -1.7942      2.00000
     18      -1.7942      2.00000
     19      -1.6616      2.00000
     20      -1.6616      2.00000
     21       1.5680      2.00000
     22       1.5680      2.00000
     23       1.8996      2.00000
     24       1.8996      2.00000
     25       1.9038      2.00000
     26       1.9038      2.00000
     27       1.9641      2.00000
     28       1.9641      2.00000
     29      10.7065      0.00000
     30      10.7065      0.00000
     31      11.0944      0.00000
     32      11.0944      0.00000
     33      15.0213      0.00000
     34      15.0213      0.00000
     35      15.0844      0.00000
     36      15.0844      0.00000
     37      17.6819      0.00000
     38      17.6819      0.00000
     39      18.4850      0.00000
     40      18.4850      0.00000
     41      19.0425      0.00000
     42      19.0425      0.00000
     43      19.1381      0.00000
     44      19.1381      0.00000
     45      23.7516      0.00000
     46      23.7516      0.00000
     47      24.1304      0.00000
     48      24.1304      0.00000
     49      24.2892      0.00000
     50      24.2892      0.00000
     51      24.5673      0.00000
     52      24.5673      0.00000
     53      24.9855      0.00000
     54      24.9855      0.00000
     55      25.5782      0.00000
     56      25.5782      0.00000
     57      31.6788      0.00000
     58      31.6788      0.00000
     59      32.2087      0.00000
     60      32.2087      0.00000
     61      32.6126      0.00000
     62      32.6126      0.00000
     63      32.7159      0.00000
     64      32.7159      0.00000
     65      32.7466      0.00000
     66      32.7466      0.00000
     67      33.7689      0.00000
     68      33.7689      0.00000
     69      34.6224      0.00000
     70      34.6224      0.00000
     71      36.0210      0.00000
     72      36.0210      0.00000
     73      36.0556      0.00000
     74      36.0556      0.00000
     75      36.9726      0.00000
     76      36.9726      0.00000
     77      41.5331      0.00000
     78      41.5331      0.00000
     79      45.4917      0.00000
     80      45.4917      0.00000
     81      47.0557      0.00000
     82      47.0557      0.00000
     83      47.5467      0.00000
     84      47.5467      0.00000
     85      47.6994      0.00000
     86      47.6994      0.00000
     87      47.9054      0.00000
     88      47.9054      0.00000
     89      49.1725      0.00000
     90      49.1725      0.00000
     91      50.0270      0.00000
     92      50.0270      0.00000
     93      51.9504      0.00000
     94      51.9504      0.00000
     95      52.5261      0.00000
     96      52.5277      0.00000

 k-point    34 :       0.5000    0.5000    0.3750
  band No.  band energies     occupation 
      1     -36.5445      2.00000
      2     -36.5445      2.00000
      3     -36.5445      2.00000
      4     -36.5445      2.00000
      5     -36.4733      2.00000
      6     -36.4733      2.00000
      7     -36.4733      2.00000
      8     -36.4733      2.00000
      9     -36.4709      2.00000
     10     -36.4709      2.00000
     11     -36.4709      2.00000
     12     -36.4709      2.00000
     13     -13.1982      2.00000
     14     -13.1982      2.00000
     15     -13.1982      2.00000
     16     -13.1982      2.00000
     17      -1.8409      2.00000
     18      -1.8409      2.00000
     19      -1.8409      2.00000
     20      -1.8409      2.00000
     21       1.8256      2.00000
     22       1.8256      2.00000
     23       1.8256      2.00000
     24       1.8256      2.00000
     25       1.9761      2.00000
     26       1.9761      2.00000
     27       1.9761      2.00000
     28       1.9761      2.00000
     29      10.7405      0.00000
     30      10.7405      0.00000
     31      10.7405      0.00000
     32      10.7405      0.00000
     33      15.1202      0.00000
     34      15.1202      0.00000
     35      15.1202      0.00000
     36      15.1202      0.00000
     37      18.4058      0.00000
     38      18.4058      0.00000
     39      18.4058      0.00000
     40      18.4058      0.00000
     41      18.9898      0.00000
     42      18.9898      0.00000
     43      18.9898      0.00000
     44      18.9898      0.00000
     45      24.0503      0.00000
     46      24.0503      0.00000
     47      24.0503      0.00000
     48      24.0503      0.00000
     49      24.6872      0.00000
     50      24.6872      0.00000
     51      24.6872      0.00000
     52      24.6872      0.00000
     53      24.8050      0.00000
     54      24.8050      0.00000
     55      24.8050      0.00000
     56      24.8050      0.00000
     57      31.6011      0.00000
     58      31.6011      0.00000
     59      31.6011      0.00000
     60      31.6011      0.00000
     61      32.9277      0.00000
     62      32.9277      0.00000
     63      32.9277      0.00000
     64      32.9277      0.00000
     65      33.4548      0.00000
     66      33.4548      0.00000
     67      33.4548      0.00000
     68      33.4548      0.00000
     69      34.8155      0.00000
     70      34.8155      0.00000
     71      34.8155      0.00000
     72      34.8155      0.00000
     73      36.1689      0.00000
     74      36.1689      0.00000
     75      36.1689      0.00000
     76      36.1689      0.00000
     77      43.6522      0.00000
     78      43.6522      0.00000
     79      43.6522      0.00000
     80      43.6522      0.00000
     81      47.7835      0.00000
     82      47.7836      0.00000
     83      47.7836      0.00000
     84      47.7836      0.00000
     85      48.6079      0.00000
     86      48.6079      0.00000
     87      48.6079      0.00000
     88      48.6079      0.00000
     89      49.2852      0.00000
     90      49.2852      0.00000
     91      49.2852      0.00000
     92      49.2852      0.00000
     93      53.0549      0.00000
     94      53.0763      0.00000
     95      53.0811      0.00000
     96      53.0825      0.00000

 k-point    35 :       0.5000    0.5000    0.5000
  band No.  band energies     occupation 
      1     -36.5473      2.00000
      2     -36.5473      2.00000
      3     -36.5473      2.00000
      4     -36.5473      2.00000
      5     -36.4710      2.00000
      6     -36.4710      2.00000
      7     -36.4710      2.00000
      8     -36.4710      2.00000
      9     -36.4710      2.00000
     10     -36.4710      2.00000
     11     -36.4710      2.00000
     12     -36.4710      2.00000
     13     -13.1854      2.00000
     14     -13.1854      2.00000
     15     -13.1854      2.00000
     16     -13.1854      2.00000
     17      -1.9576      2.00000
     18      -1.9576      2.00000
     19      -1.9576      2.00000
     20      -1.9576      2.00000
     21       1.9759      2.00000
     22       1.9759      2.00000
     23       1.9759      2.00000
     24       1.9759      2.00000
     25       1.9759      2.00000
     26       1.9759      2.00000
     27       1.9759      2.00000
     28       1.9759      2.00000
     29      10.5585      0.00000
     30      10.5585      0.00000
     31      10.5585      0.00000
     32      10.5585      0.00000
     33      15.1888      0.00000
     34      15.1888      0.00000
     35      15.1888      0.00000
     36      15.1888      0.00000
     37      18.8693      0.00000
     38      18.8693      0.00000
     39      18.8693      0.00000
     40      18.8693      0.00000
     41      18.8693      0.00000
     42      18.8693      0.00000
     43      18.8693      0.00000
     44      18.8693      0.00000
     45      23.4284      0.00000
     46      23.4284      0.00000
     47      23.4284      0.00000
     48      23.4284      0.00000
     49      25.0272      0.00000
     50      25.0272      0.00000
     51      25.0272      0.00000
     52      25.0272      0.00000
     53      25.0272      0.00000
     54      25.0272      0.00000
     55      25.0272      0.00000
     56      25.0272      0.00000
     57      31.1341      0.00000
     58      31.1341      0.00000
     59      31.1341      0.00000
     60      31.1341      0.00000
     61      33.3931      0.00000
     62      33.3931      0.00000
     63      33.3931      0.00000
     64      33.3931      0.00000
     65      33.3931      0.00000
     66      33.3931      0.00000
     67      33.3931      0.00000
     68      33.3931      0.00000
     69      35.0649      0.00000
     70      35.0649      0.00000
     71      35.0649      0.00000
     72      35.0649      0.00000
     73      35.0649      0.00000
     74      35.0649      0.00000
     75      35.0649      0.00000
     76      35.0649      0.00000
     77      45.0172      0.00000
     78      45.0172      0.00000
     79      45.0172      0.00000
     80      45.0172      0.00000
     81      46.8323      0.00000
     82      46.8323      0.00000
     83      46.8323      0.00000
     84      46.8323      0.00000
     85      49.4730      0.00000
     86      49.4730      0.00000
     87      49.4730      0.00000
     88      49.4730      0.00000
     89      49.4730      0.00000
     90      49.4730      0.00000
     91      49.4730      0.00000
     92      49.4730      0.00000
     93      53.0524      0.00000
     94      53.0571      0.00000
     95      53.0602      0.00000
     96      53.0612      0.00000


--------------------------------------------------------------------------------------------------------


 soft charge-density along one line, spin component           1
         0         1         2         3         4         5         6         7         8         9
 total charge-density along one line

 pseudopotential strength for first ion, spin component:           1
-48.344  -0.000   0.000   5.618   0.000  -0.000   0.000  -0.000
 -0.000 -48.344  -0.000   0.000   5.618   0.000   0.000  -0.000
  0.000  -0.000 -48.344  -0.000   0.000   5.618  -0.000  -0.000
  5.618   0.000  -0.000   4.765   0.000   0.000   0.000  -0.000
  0.000   5.618   0.000   0.000   4.765  -0.000   0.000  -0.000
 -0.000   0.000   5.618   0.000  -0.000   4.765   0.000  -0.000
  0.000   0.000  -0.000   0.000   0.000   0.000   2.960 -10.806
 -0.000  -0.000  -0.000  -0.000  -0.000  -0.000 -10.806  44.892
 -0.000  -0.000  -0.000   0.000   0.000   0.000   0.000  -0.000
 -0.000  -0.000  -0.000   0.000   0.000   0.000   0.000  -0.000
  0.000  -0.000   0.000  -0.000   0.000  -0.000   0.000  -0.000
 -0.000  -0.000  -0.000   0.000   0.000   0.000   0.000  -0.000
  0.000  -0.000  -0.000  -0.000   0.000  -0.000  -0.000   0.000
 total augmentation occupancy for first ion, spin component:           1
  2.002  -0.000  -0.000  -0.001  -0.000  -0.000  -0.000   0.000   0.000  -0.000   0.000   0.000   0.000
 -0.000   2.002   0.000  -0.000  -0.001   0.000   0.000   0.000   0.000   0.000   0.000   0.000   0.000
 -0.000  -0.000   2.002  -0.000  -0.000  -0.001  -0.000   0.000   0.000   0.000   0.000   0.000   0.000
 -0.001  -0.000   0.000   0.077  -0.000   0.000   0.000   0.000  -0.000   0.000  -0.000   0.000   0.000
  0.000  -0.001   0.000   0.000   0.077  -0.000  -0.000   0.000   0.000   0.000   0.000   0.000  -0.000
 -0.000  -0.000  -0.001   0.000  -0.000   0.077   0.000   0.000  -0.000   0.000  -0.000   0.000  -0.000
  0.000  -0.000  -0.000   0.000   0.000   0.000   0.865   0.015   0.000  -0.000  -0.000  -0.000   0.000
 -0.000  -0.000   0.000   0.000  -0.000   0.000   0.015   0.000   0.000  -0.000  -0.000  -0.000  -0.000
  0.000   0.000   0.000   0.000  -0.000   0.000  -0.000   0.000   0.013   0.000   0.000   0.000   0.000
 -0.000   0.000   0.000   0.000  -0.000   0.000   0.000  -0.000  -0.000   0.013   0.000  -0.000   0.000
 -0.000   0.000  -0.000   0.000  -0.000   0.000  -0.000  -0.000   0.000   0.000   0.053   0.000  -0.000
  0.000   0.000   0.000   0.000   0.000   0.000  -0.000   0.000   0.000   0.000  -0.000   0.013  -0.000
  0.000   0.000  -0.000   0.000  -0.000   0.000   0.000  -0.000   0.000   0.000  -0.000   0.000   0.053


------------------------ aborting loop because EDIFF is reached ----------------------------------------


    FORLOC:  cpu time      0.0004: real time      0.0004
    FORNL :  cpu time      0.0071: real time      0.0074
    STRESS:  cpu time      0.0737: real time      0.0738
    FORCOR:  cpu time      0.5570: real time      0.5574
    OFIELD:  cpu time      0.0000: real time      0.0000

  FORCE on cell =-STRESS in cart. coord.  units (eV):
  Direction    XX          YY          ZZ          XY          YZ          ZX
  --------------------------------------------------------------------------------------
  Alpha Z   276.51687   276.51687   276.51687
  Ewald   -1280.88177 -1280.88177 -1280.88177     0.00000    -0.00000     0.00000
  Hartree   408.57197   408.57197   408.57197    -0.00000    -0.00000    -0.00000
  E(xc)    -307.97423  -307.97423  -307.97423     0.00000     0.00000     0.00000
  Local     209.13518   209.13518   209.13518    -0.00000    -0.00000     0.00000
  n-local  -354.06959  -355.55830  -355.36134     0.17967     0.16747     0.10179
  augment   131.02068   131.02068   131.02068    -0.00000    -0.00000     0.00000
  Kinetic   911.79847   920.61005   923.43407    -2.95813    -2.89774    -1.78116
  Fock        0.00000     0.00000     0.00000     0.00000     0.00000     0.00000
  -------------------------------------------------------------------------------------
  Total       0.00648     0.00648     0.00648     0.00000     0.00000    -0.00000
  in kB       0.13805     0.13805     0.13805     0.00000     0.00000    -0.00000
  external pressure =        0.14 kB  Pullay stress =        0.00 kB


 VOLUME and BASIS-vectors are now :
 -----------------------------------------------------------------------------
  energy-cutoff  :      600.00
  volume of cell :       75.17
      direct lattice vectors                 reciprocal lattice vectors
     4.220291131  0.000000000  0.000000000     0.236950478  0.000000000  0.000000000
     0.000000000  4.220291131 -0.000000000     0.000000000  0.236950478 -0.000000000
    -0.000000000  0.000000000  4.220291131    -0.000000000  0.000000000  0.236950478

  length of vectors
     4.220291131  4.220291131  4.220291131     0.236950478  0.236950478  0.236950478


 FORCES acting on ions:
    Electron-Ion                     Ewald-Force                    Non-Local-Force
 -----------------------------------------------------------------------------------------------
   -.376E-13 -.301E-13 -.310E-13   -.532E-14 -.594E-14 -.876E-14   -.103E-24 0.207E-24 0.352E-24
   -.374E-13 0.401E-12 0.398E-12   -.525E-14 -.213E-14 -.338E-14   0.000E+00 0.258E-24 -.129E-24
   0.401E-12 -.303E-13 0.293E-11   -.531E-14 -.579E-14 -.343E-14   -.517E-25 0.775E-25 -.304E-24
   0.399E-12 0.975E-12 -.342E-12   -.524E-14 -.198E-14 -.134E-13   0.103E-24 0.000E+00 0.171E-24
   0.173E-12 -.238E-13 -.155E-11   0.105E-13 0.254E-14 0.303E-14   0.207E-24 0.310E-24 0.230E-24
   0.171E-12 0.127E-12 0.732E-12   0.107E-13 0.384E-14 0.101E-13   0.517E-24 0.000E+00 0.509E-25
   -.292E-13 -.280E-13 0.166E-12   0.313E-15 0.398E-14 0.101E-13   -.207E-24 0.000E+00 0.283E-25
   -.293E-13 0.172E-12 -.244E-13   0.576E-15 0.528E-14 0.569E-14   0.103E-24 0.000E+00 0.101E-24
 -----------------------------------------------------------------------------------------------
   0.102E-11 0.159E-11 0.233E-11   0.945E-15 -.205E-15 -.477E-17   0.569E-24 0.853E-24 0.499E-24


 POSITION                                       TOTAL-FORCE (eV/Angst)
 -----------------------------------------------------------------------------------
      0.00000      0.00000      0.00000         0.000000      0.000000      0.000000
      0.00000      2.11015      2.11015         0.000000      0.000000     -0.000000
      2.11015      0.00000      2.11015         0.000000      0.000000     -0.000000
      2.11015      2.11015      0.00000        -0.000000     -0.000000      0.000000
      2.11015      0.00000      0.00000        -0.000000     -0.000000     -0.000000
      2.11015      2.11015      2.11015        -0.000000     -0.000000      0.000000
      0.00000      0.00000      2.11015        -0.000000     -0.000000      0.000000
      0.00000      2.11015      0.00000        -0.000000      0.000000     -0.000000
 -----------------------------------------------------------------------------------
    total drift:                                0.000000      0.000000      0.000000


--------------------------------------------------------------------------------------------------------



  FREE ENERGIE OF THE ION-ELECTRON SYSTEM (eV)
  ---------------------------------------------------
  free  energy   TOTEN  =       -34.33430492 eV

  energy  without entropy=      -34.33430492  energy(sigma->0) =      -34.33430492



--------------------------------------------------------------------------------------------------------


    POTLOK:  cpu time      0.8930: real time      0.8932


--------------------------------------------------------------------------------------------------------




--------------------------------------------------------------------------------------------------------


  
 reached required accuracy - stopping structural energy minimisation
     LOOP+:  cpu time     70.6290: real time     70.7676
    4ORBIT:  cpu time      0.0000: real time      0.0000

 total amount of memory used by VASP MPI-rank0    37050. kBytes
=======================================================================

   base      :      30000. kBytes
   nonl-proj :       4978. kBytes
   fftplans  :        364. kBytes
   grid      :        402. kBytes
   one-center:         16. kBytes
   wavefun   :       1290. kBytes

  
  
 General timing and accounting informations for this job:
 ========================================================
  
                  Total CPU time used (sec):       81.220
                            User time (sec):       80.172
                          System time (sec):        1.047
                         Elapsed time (sec):       85.960
  
                   Maximum memory used (kb):      216028.
                   Average memory used (kb):          N/A
  
                          Minor page faults:        30539
                          Major page faults:            0
                 Voluntary context switches:         9337
