 vasp.6.3.0 20Jan22 (build Mar 11 2022 13:48:16) complex

 executed on             LinuxIFC date 2023.12.26  18:07:14
 running on  304 total cores
 distrk:  each k-point on  304 cores,    1 groups
 distr:  one band on NCORE=   2 cores,  152 groups


--------------------------------------------------------------------------------------------------------


 INCAR:
   SYSTEM = MgO-rocksalt
   ISMEAR = 0
   SIGMA = 0.05
   EDIFF = 1E-6
   ALGO = ALL
   ISTART = 0
   IBRION = -1
   NSW = 0
   ISYM = 2
   ISIF = 2
   EDIFFG = -0.01
   DIPOL = 0.5 0.5 0.5
   IDIPOL = 3
   LDIPOL = .TRUE.
   GGA = MK
   LUSE_VDW = .TRUE.
   PARAM1 = 0.1234
   PARAM2 = 0.711357
   ZAB_VDW = -1.8867
   AGGAC = 0.0
   ENCUT = 600
   PREC = Accurate
   LASPH = .TRUE.
   LREAL = .FALSE.
   ISPIN = 1
   NELM = 200
   NELMIN = 8
   NCORE = 2
   KPAR = 1
   LWAVE = .FALSE.
   LCHARG = .FALSE.

 POTCAR:    PAW_PBE C 08Apr2002
 POTCAR:    PAW_PBE O 08Apr2002
 POTCAR:    PAW_PBE Mg_pv 13Apr2007
 POTCAR:    PAW_PBE O 08Apr2002
 -----------------------------------------------------------------------------
|                                                                             |
|           W    W    AA    RRRRR   N    N  II  N    N   GGGG   !!!           |
|           W    W   A  A   R    R  NN   N  II  NN   N  G    G  !!!           |
|           W    W  A    A  R    R  N N  N  II  N N  N  G       !!!           |
|           W WW W  AAAAAA  RRRRR   N  N N  II  N  N N  G  GGG   !            |
|           WW  WW  A    A  R   R   N   NN  II  N   NN  G    G                |
|           W    W  A    A  R    R  N    N  II  N    N   GGGG   !!!           |
|                                                                             |
|     For optimal performance we recommend to set                             |
|       NCORE = 2 up to number-of-cores-per-socket                            |
|     NCORE specifies how many cores store one orbital (NPAR=cpu/NCORE).      |
|     This setting can greatly improve the performance of VASP for DFT.       |
|     The default, NCORE=1 might be grossly inefficient on modern             |
|     multi-core architectures or massively parallel machines. Do your        |
|     own testing! More info at https://www.vasp.at/wiki/index.php/NCORE      |
|     Unfortunately you need to use the default for GW and RPA                |
|     calculations (for HF NCORE is supported but not extensively tested      |
|     yet).                                                                   |
|                                                                             |
 -----------------------------------------------------------------------------

 -----------------------------------------------------------------------------
|                                                                             |
|               ----> ADVICE to this user running VASP <----                  |
|                                                                             |
|     You have switched on vdW-DFT.                                           |
|     This routine was written and supplied by Jiri Klimes. We recommend      |
|     that you carefully read and cite the following publications:            |
|       J. Klimes, D.R. Bowler, A. Michelides                                 |
|          J. Phys.: Cond Matt. 22 022201 (2010)                              |
|       J. Klimes, D.R. Bowler, A. Michelides                                 |
|          Phys. Rev. B. 83, 195131 (2011)                                    |
|     and references therein.                                                 |
|                                                                             |
 -----------------------------------------------------------------------------

 POTCAR:    PAW_PBE C 08Apr2002
   SHA256 =  253f7b50bb8d59471dbedb8285d89021f4a42ed1a2c5d38a03a736e69125dd95 C/POTCAR
   COPYR  = (c) Copyright 08Apr2002 Georg Kresse
   COPYR  = This file is part of the software VASP. Any use, copying, and all other rights are regul
   COPYR  = If you do not have a valid VASP license, you may not use, copy or distribute this file.
   VRHFIN =C: s2p2
   LEXCH  = PE
   EATOM  =   147.1560 eV,   10.8157 Ry

   TITEL  = PAW_PBE C 08Apr2002
   LULTRA =        F    use ultrasoft PP ?
   IUNSCR =        1    unscreen: 0-lin 1-nonlin 2-no
   RPACOR =    1.200    partial core radius
   POMASS =   12.011; ZVAL   =    4.000    mass and valenz
   RCORE  =    1.500    outmost cutoff radius
   RWIGS  =    1.630; RWIGS  =    0.863    wigner-seitz radius (au A)
   ENMAX  =  400.000; ENMIN  =  300.000 eV
   ICORE  =        2    local potential
   LCOR   =        T    correct aug charges
   LPAW   =        T    paw PP
   EAUG   =  644.873
   DEXC   =    0.000
   RMAX   =    1.529    core radius for proj-oper
   RAUG   =    1.300    factor for augmentation sphere
   RDEP   =    1.501    radius for radial grids
   RDEPT  =    1.300    core radius for aug-charge

   Atomic configuration
    4 entries
     n  l   j            E        occ.
     1  0  0.50      -273.3789   2.0000
     2  0  0.50       -13.7508   2.0000
     2  1  0.50        -5.2854   2.0000
     3  2  1.50        -5.4423   0.0000
   Description
     l       E           TYP  RCUT    TYP  RCUT
     0    -13.7508458     23  1.200
     0     -8.2022199     23  1.200
     1     -5.2854383     23  1.500
     1     34.0145650     23  1.500
     2     -5.4423304      7  1.500
  local pseudopotential read in
  partial core-charges read in
  partial kinetic energy density read in
  atomic valenz-charges read in
  non local Contribution for L=           0  read in
    real space projection operators read in
  non local Contribution for L=           0  read in
    real space projection operators read in
  non local Contribution for L=           1  read in
    real space projection operators read in
  non local Contribution for L=           1  read in
    real space projection operators read in
    PAW grid and wavefunctions read in

   number of l-projection  operators is LMAX  =           4
   number of lm-projection operators is LMMAX =           8

 POTCAR:    PAW_PBE O 08Apr2002
   SHA256 =  818f92134a0a090dccd8ba1447fa70422a3b330e708bb4f08108d8ae51209ddf O/POTCAR
   COPYR  = (c) Copyright 08Apr2002 Georg Kresse
   COPYR  = This file is part of the software VASP. Any use, copying, and all other rights are regul
   COPYR  = If you do not have a valid VASP license, you may not use, copy or distribute this file.
   VRHFIN =O: s2p4
   LEXCH  = PE
   EATOM  =   432.3788 eV,   31.7789 Ry

   TITEL  = PAW_PBE O 08Apr2002
   LULTRA =        F    use ultrasoft PP ?
   IUNSCR =        1    unscreen: 0-lin 1-nonlin 2-no
   RPACOR =    1.200    partial core radius
   POMASS =   16.000; ZVAL   =    6.000    mass and valenz
   RCORE  =    1.520    outmost cutoff radius
   RWIGS  =    1.550; RWIGS  =    0.820    wigner-seitz radius (au A)
   ENMAX  =  400.000; ENMIN  =  300.000 eV
   ICORE  =        2    local potential
   LCOR   =        T    correct aug charges
   LPAW   =        T    paw PP
   EAUG   =  605.392
   DEXC   =    0.000
   RMAX   =    1.553    core radius for proj-oper
   RAUG   =    1.300    factor for augmentation sphere
   RDEP   =    1.550    radius for radial grids
   RDEPT  =    1.329    core radius for aug-charge

   Atomic configuration
    4 entries
     n  l   j            E        occ.
     1  0  0.50      -514.6923   2.0000
     2  0  0.50       -23.9615   2.0000
     2  1  0.50        -9.0305   4.0000
     3  2  1.50        -9.5241   0.0000
   Description
     l       E           TYP  RCUT    TYP  RCUT
     0    -23.9615318     23  1.200
     0     -9.5240782     23  1.200
     1     -9.0304911     23  1.520
     1      8.1634956     23  1.520
     2     -9.5240782      7  1.500
  local pseudopotential read in
  partial core-charges read in
  partial kinetic energy density read in
  kinetic energy density of atom read in
  atomic valenz-charges read in
  non local Contribution for L=           0  read in
    real space projection operators read in
  non local Contribution for L=           0  read in
    real space projection operators read in
  non local Contribution for L=           1  read in
    real space projection operators read in
  non local Contribution for L=           1  read in
    real space projection operators read in
    PAW grid and wavefunctions read in

   number of l-projection  operators is LMAX  =           4
   number of lm-projection operators is LMMAX =           8

 POTCAR:    PAW_PBE Mg_pv 13Apr2007
   SHA256 =  f474ac0dd33840b9ae76c01d57fea79fdf77cdfbb07d5ade72c65f83c709b62b Mg_pv/POTCAR
   COPYR  = (c) Copyright 13Apr2007 Georg Kresse
   COPYR  = This file is part of the software VASP. Any use, copying, and all other rights are regul
   COPYR  = If you do not have a valid VASP license, you may not use, copy or distribute this file.
   VRHFIN =Mg: p6s2
   LEXCH  = PE
   EATOM  =  1056.7344 eV,   77.6678 Ry

   TITEL  = PAW_PBE Mg_pv 13Apr2007
   LULTRA =        F    use ultrasoft PP ?
   IUNSCR =        1    unscreen: 0-lin 1-nonlin 2-no
   RPACOR =    1.500    partial core radius
   POMASS =   24.305; ZVAL   =    8.000    mass and valenz
   RCORE  =    2.000    outmost cutoff radius
   RWIGS  =    2.000; RWIGS  =    1.058    wigner-seitz radius (au A)
   ENMAX  =  403.929; ENMIN  =  302.947 eV
   RCLOC  =    1.506    cutoff for local pot
   LCOR   =        T    correct aug charges
   LPAW   =        T    paw PP
   EAUG   =  758.780
   DEXC   =    0.000
   RMAX   =    2.045    core radius for proj-oper
   RAUG   =    1.300    factor for augmentation sphere
   RDEP   =    2.025    radius for radial grids
   RDEPT  =    1.557    core radius for aug-charge

   Atomic configuration
    5 entries
     n  l   j            E        occ.
     1  0  0.50     -1259.6230   2.0000
     2  0  0.50       -79.8442   2.0000
     2  1  1.50       -46.6121   6.0000
     3  0  0.50        -4.7055   2.0000
     3  2  1.50        -1.3606   0.0000
   Description
     l       E           TYP  RCUT    TYP  RCUT
     1    -46.6121073     23  1.600
     1      2.7211652     23  1.600
     0     -4.7054661     23  2.000
     0     61.2262170     23  2.000
     2     -1.3605826     23  2.000
  local pseudopotential read in
  partial core-charges read in
  partial kinetic energy density read in
  atomic valenz-charges read in
  non local Contribution for L=           1  read in
    real space projection operators read in
  non local Contribution for L=           1  read in
    real space projection operators read in
  non local Contribution for L=           0  read in
    real space projection operators read in
  non local Contribution for L=           0  read in
    real space projection operators read in
  non local Contribution for L=           2  read in
    real space projection operators read in
    PAW grid and wavefunctions read in

   number of l-projection  operators is LMAX  =           5
   number of lm-projection operators is LMMAX =          13

 POTCAR:    PAW_PBE O 08Apr2002
   SHA256 =  818f92134a0a090dccd8ba1447fa70422a3b330e708bb4f08108d8ae51209ddf O/POTCAR
   COPYR  = (c) Copyright 08Apr2002 Georg Kresse
   COPYR  = This file is part of the software VASP. Any use, copying, and all other rights are regul
   COPYR  = If you do not have a valid VASP license, you may not use, copy or distribute this file.
   VRHFIN =O: s2p4
   LEXCH  = PE
   EATOM  =   432.3788 eV,   31.7789 Ry

   TITEL  = PAW_PBE O 08Apr2002
   LULTRA =        F    use ultrasoft PP ?
   IUNSCR =        1    unscreen: 0-lin 1-nonlin 2-no
   RPACOR =    1.200    partial core radius
   POMASS =   16.000; ZVAL   =    6.000    mass and valenz
   RCORE  =    1.520    outmost cutoff radius
   RWIGS  =    1.550; RWIGS  =    0.820    wigner-seitz radius (au A)
   ENMAX  =  400.000; ENMIN  =  300.000 eV
   ICORE  =        2    local potential
   LCOR   =        T    correct aug charges
   LPAW   =        T    paw PP
   EAUG   =  605.392
   DEXC   =    0.000
   RMAX   =    1.553    core radius for proj-oper
   RAUG   =    1.300    factor for augmentation sphere
   RDEP   =    1.550    radius for radial grids
   RDEPT  =    1.329    core radius for aug-charge

   Atomic configuration
    4 entries
     n  l   j            E        occ.
     1  0  0.50      -514.6923   2.0000
     2  0  0.50       -23.9615   2.0000
     2  1  0.50        -9.0305   4.0000
     3  2  1.50        -9.5241   0.0000
   Description
     l       E           TYP  RCUT    TYP  RCUT
     0    -23.9615318     23  1.200
     0     -9.5240782     23  1.200
     1     -9.0304911     23  1.520
     1      8.1634956     23  1.520
     2     -9.5240782      7  1.500
  local pseudopotential read in
  partial core-charges read in
  partial kinetic energy density read in
  kinetic energy density of atom read in
  atomic valenz-charges read in
  non local Contribution for L=           0  read in
    real space projection operators read in
  non local Contribution for L=           0  read in
    real space projection operators read in
  non local Contribution for L=           1  read in
    real space projection operators read in
  non local Contribution for L=           1  read in
    real space projection operators read in
    PAW grid and wavefunctions read in

   number of l-projection  operators is LMAX  =           4
   number of lm-projection operators is LMMAX =           8

 -----------------------------------------------------------------------------
|                                                                             |
|               ----> ADVICE to this user running VASP <----                  |
|                                                                             |
|     You have a (more or less) 'large supercell' and for larger cells it     |
|     might be more efficient to use real-space projection operators.         |
|     Therefore, try LREAL= Auto in the INCAR file.                           |
|     Mind: For very accurate calculation, you might also keep the            |
|     reciprocal projection scheme (i.e. LREAL=.FALSE.).                      |
|                                                                             |
 -----------------------------------------------------------------------------

 -----------------------------------------------------------------------------
|                                                                             |
|               ----> ADVICE to this user running VASP <----                  |
|                                                                             |
|     You enforced a specific xc type in the INCAR file but a different       |
|     type was found in the POTCAR file.                                      |
|     I HOPE YOU KNOW WHAT YOU ARE DOING!                                     |
|                                                                             |
 -----------------------------------------------------------------------------

  PAW_PBE C 08Apr2002                   :
 energy of atom  1       EATOM= -147.1560
 kinetic energy error for atom=    0.0057 (will be added to EATOM!!)
  PAW_PBE O 08Apr2002                   :
 energy of atom  2       EATOM= -432.3788
 kinetic energy error for atom=    0.0168 (will be added to EATOM!!)
  PAW_PBE Mg_pv 13Apr2007               :
 energy of atom  3       EATOM=-1056.7344
 kinetic energy error for atom=    0.0221 (will be added to EATOM!!)
  PAW_PBE O 08Apr2002                   :
 energy of atom  4       EATOM= -432.3788
 kinetic energy error for atom=    0.0168 (will be added to EATOM!!)


 POSCAR:  C  O Mg  O
  positions in direct lattice
  velocities in cartesian coordinates
 exchange correlation table for  LEXCH =       43
   RHO(1)=    0.500       N(1)  =     2000
   RHO(2)=  100.500       N(2)  =     4000



--------------------------------------------------------------------------------------------------------


 ion  position               nearest neighbor table
   1  0.500  0.500  0.763-   2 1.14
   2  0.500  0.500  0.817-   1 1.14
   3  0.250  0.000  0.352-  35 2.11  37 2.11  38 2.11  45 2.11  54 2.11
   4  0.500  0.250  0.352-  36 2.11  37 2.11  38 2.11  46 2.11  53 2.11
   5  0.250  0.250  0.451-  37 2.11  36 2.11  35 2.11  43 2.11  52 2.11  41 2.11
   6  0.500  0.000  0.451-  38 2.11  36 2.11  35 2.11  44 2.11  51 2.11  42 2.11
   7  0.250  0.000  0.550-  42 2.11  41 2.11  49 2.11  58 2.11  35 2.12  39 2.14
   8  0.500  0.250  0.550-  50 2.11  41 2.11  57 2.11  42 2.11  36 2.12  40 2.14
   9  0.250  0.250  0.648-  41 2.10  39 2.11  56 2.11  47 2.11  40 2.11
  10  0.500  0.000  0.648-  40 2.10  48 2.10  42 2.10  39 2.11  55 2.11
  11  0.250  0.500  0.352-  43 2.11  37 2.11  45 2.11  46 2.11  62 2.11
  12  0.500  0.750  0.352-  44 2.11  38 2.11  45 2.11  46 2.11  61 2.11
  13  0.250  0.750  0.451-  45 2.11  43 2.11  44 2.11  35 2.11  60 2.11  49 2.11
  14  0.500  0.500  0.451-  46 2.11  43 2.11  44 2.11  36 2.11  59 2.11  50 2.12
  15  0.250  0.500  0.550-  50 2.11  49 2.11  41 2.11  66 2.11  43 2.12  47 2.14
  16  0.500  0.750  0.550-  50 2.11  49 2.11  65 2.11  42 2.11  44 2.12  48 2.14
  17  0.250  0.750  0.648-  49 2.10  39 2.11  64 2.11  47 2.11  48 2.11
  18  0.500  0.500  0.651-  40 2.12  47 2.12  48 2.12  63 2.12  50 2.14
  19  0.750  0.000  0.352-  51 2.11  38 2.11  53 2.11  54 2.11  61 2.11
  20  0.000  0.250  0.352-  52 2.11  37 2.11  53 2.11  54 2.11  62 2.11
  21  0.750  0.250  0.451-  53 2.11  51 2.11  52 2.11  36 2.11  59 2.11  57 2.11
  22  0.000  0.000  0.451-  54 2.11  51 2.11  52 2.11  35 2.11  60 2.11  58 2.11
  23  0.750  0.000  0.550-  42 2.11  57 2.11  65 2.11  58 2.11  51 2.12  55 2.14
  24  0.000  0.250  0.550-  66 2.11  57 2.11  41 2.11  58 2.11  52 2.12  56 2.14
  25  0.750  0.250  0.648-  57 2.10  56 2.11  55 2.11  40 2.11  63 2.11
  26  0.000  0.000  0.648-  58 2.10  55 2.11  56 2.11  39 2.11  64 2.11
  27  0.750  0.500  0.352-  59 2.11  53 2.11  46 2.11  61 2.11  62 2.11
  28  0.000  0.750  0.352-  60 2.11  54 2.11  45 2.11  61 2.11  62 2.11
  29  0.750  0.750  0.451-  61 2.11  51 2.11  59 2.11  60 2.11  44 2.11  65 2.11
  30  0.000  0.500  0.451-  62 2.11  52 2.11  59 2.11  60 2.11  43 2.11  66 2.11
  31  0.750  0.500  0.550-  50 2.11  57 2.11  65 2.11  66 2.11  59 2.12  63 2.14
  32  0.000  0.750  0.550-  66 2.11  65 2.11  49 2.11  58 2.11  60 2.12  64 2.14
  33  0.750  0.750  0.648-  65 2.10  64 2.11  55 2.11  48 2.11  63 2.11
  34  0.000  0.500  0.648-  47 2.10  63 2.10  66 2.10  64 2.11  56 2.11
  35  0.250  0.000  0.451-   3 2.11   5 2.11   6 2.11  13 2.11  22 2.11   7 2.12
  36  0.500  0.250  0.451-   4 2.11   5 2.11   6 2.11  14 2.11  21 2.11   8 2.12
  37  0.250  0.250  0.352-   5 2.11   4 2.11   3 2.11  11 2.11  20 2.11
  38  0.500  0.000  0.352-   6 2.11   4 2.11   3 2.11  12 2.11  19 2.11
  39  0.250  0.000  0.650-   9 2.11  17 2.11  26 2.11  10 2.11   7 2.14
  40  0.500  0.249  0.650-  10 2.10   9 2.11  25 2.11  18 2.12   8 2.14
  41  0.250  0.250  0.550-   9 2.10   7 2.11  24 2.11  15 2.11   8 2.11   5 2.11
  42  0.500  0.000  0.550-  10 2.10   7 2.11  23 2.11   6 2.11  16 2.11   8 2.11
  43  0.250  0.500  0.451-  11 2.11   5 2.11  13 2.11  14 2.11  30 2.11  15 2.12
  44  0.500  0.750  0.451-  12 2.11   6 2.11  13 2.11  14 2.11  29 2.11  16 2.12
  45  0.250  0.750  0.352-  13 2.11  11 2.11  12 2.11   3 2.11  28 2.11
  46  0.500  0.500  0.352-  14 2.11  11 2.11  12 2.11   4 2.11  27 2.11
  47  0.249  0.500  0.650-  34 2.10  17 2.11   9 2.11  18 2.12  15 2.14
  48  0.500  0.751  0.650-  10 2.10  17 2.11  33 2.11  18 2.12  16 2.14
  49  0.250  0.750  0.550-  17 2.10   7 2.11  32 2.11  15 2.11  16 2.11  13 2.11
  50  0.500  0.500  0.550-   8 2.11  15 2.11  16 2.11  31 2.11  14 2.12  18 2.14
  51  0.750  0.000  0.451-  19 2.11   6 2.11  21 2.11  22 2.11  29 2.11  23 2.12
  52  0.000  0.250  0.451-  20 2.11   5 2.11  21 2.11  22 2.11  30 2.11  24 2.12
  53  0.750  0.250  0.352-  21 2.11  19 2.11  20 2.11   4 2.11  27 2.11
  54  0.000  0.000  0.352-  22 2.11  19 2.11  20 2.11   3 2.11  28 2.11
  55  0.750  0.000  0.650-  25 2.11  33 2.11  26 2.11  10 2.11  23 2.14
  56  0.000  0.250  0.650-   9 2.11  25 2.11  26 2.11  34 2.11  24 2.14
  57  0.750  0.250  0.550-  25 2.10  24 2.11  23 2.11   8 2.11  31 2.11  21 2.11
  58  0.000  0.000  0.550-  26 2.10  23 2.11  24 2.11   7 2.11  32 2.11  22 2.11
  59  0.750  0.500  0.451-  27 2.11  21 2.11  14 2.11  29 2.11  30 2.11  31 2.12
  60  0.000  0.750  0.451-  28 2.11  22 2.11  13 2.11  29 2.11  30 2.11  32 2.12
  61  0.750  0.750  0.352-  29 2.11  19 2.11  27 2.11  28 2.11  12 2.11
  62  0.000  0.500  0.352-  30 2.11  20 2.11  27 2.11  28 2.11  11 2.11
  63  0.751  0.500  0.650-  34 2.10  33 2.11  25 2.11  18 2.12  31 2.14
  64  0.000  0.750  0.650-  17 2.11  33 2.11  26 2.11  34 2.11  32 2.14
  65  0.750  0.750  0.550-  33 2.10  32 2.11  23 2.11  16 2.11  31 2.11  29 2.11
  66  0.000  0.500  0.550-  34 2.10  32 2.11  24 2.11  30 2.11  15 2.11  31 2.11

  LATTYP: Found a simple tetragonal cell.
 ALAT       =     8.4405822621
 C/A-ratio  =     2.5271285836

  Lattice vectors:

 A1 = (   8.4405822621,   0.0000000000,   0.0000000000)
 A2 = (   0.0000000000,   8.4405822621,   0.0000000000)
 A3 = (   0.0000000000,   0.0000000000,  21.3304366966)


Analysis of symmetry for initial positions (statically):
=====================================================================
 Subroutine PRICEL returns:
 Original cell was already a primitive cell.


 Routine SETGRP: Setting up the symmetry group for a
 simple tetragonal supercell.


 Subroutine GETGRP returns: Found  8 space group operations
 (whereof  8 operations were pure point group operations)
 out of a pool of 16 trial point group operations.


The static configuration has the point symmetry C_4v.


Analysis of symmetry for dynamics (positions and initial velocities):
=====================================================================
 Subroutine PRICEL returns:
 Original cell was already a primitive cell.


 Routine SETGRP: Setting up the symmetry group for a
 simple tetragonal supercell.


 Subroutine GETGRP returns: Found  8 space group operations
 (whereof  8 operations were pure point group operations)
 out of a pool of 16 trial point group operations.


The dynamic configuration has the point symmetry C_4v.


Analysis of constrained symmetry for selective dynamics:
=====================================================================
 Subroutine PRICEL returns:
 Original cell was already a primitive cell.


 Routine SETGRP: Setting up the symmetry group for a
 simple tetragonal supercell.


 Subroutine GETGRP returns: Found  8 space group operations
 (whereof  8 operations were pure point group operations)
 out of a pool of 16 trial point group operations.


The constrained configuration has the point symmetry C_4v.


 Subroutine INISYM returns: Found  8 space group operations
 (whereof  8 operations are pure point group operations),
 and found     1 'primitive' translations


----------------------------------------------------------------------------------------

                                     Primitive cell

  volume of cell :    1519.6535

  direct lattice vectors                    reciprocal lattice vectors
     8.440582262  0.000000000  0.000000000     0.118475239  0.000000000  0.000000000
     0.000000000  8.440582262  0.000000000     0.000000000  0.118475239  0.000000000
     0.000000000  0.000000000 21.330436697     0.000000000  0.000000000  0.046881366

  length of vectors
     8.440582262  8.440582262 21.330436697     0.118475239  0.118475239  0.046881366

  position of ions in fractional coordinates (direct lattice)
     0.500000000  0.500000000  0.763496057
     0.500000000  0.500000000  0.817025071
     0.250000000  0.000000000  0.351610242
     0.500000000  0.250000000  0.351610242
     0.250000000  0.250000000  0.450536747
     0.500000000  0.000000000  0.450536747
     0.250096034  0.000000000  0.549803915
     0.500000000  0.250478300  0.550037642
     0.249708419  0.249708419  0.647948439
     0.500000000  0.000000000  0.648058606
     0.250000000  0.500000000  0.351610242
     0.500000000  0.750000000  0.351610242
     0.250000000  0.750000000  0.450536747
     0.500000000  0.500000000  0.450536747
     0.250478300  0.500000000  0.550037642
     0.500000000  0.749521700  0.550037642
     0.249708419  0.750291581  0.647948439
     0.500000000  0.500000000  0.650645311
     0.750000000  0.000000000  0.351610242
     0.000000000  0.250000000  0.351610242
     0.750000000  0.250000000  0.450536747
     0.000000000  0.000000000  0.450536747
     0.749903966  0.000000000  0.549803915
     0.000000000  0.250096034  0.549803915
     0.750291581  0.249708419  0.647948439
     0.000000000  0.000000000  0.648120387
     0.750000000  0.500000000  0.351610242
     0.000000000  0.750000000  0.351610242
     0.750000000  0.750000000  0.450536747
     0.000000000  0.500000000  0.450536747
     0.749521700  0.500000000  0.550037642
     0.000000000  0.749903966  0.549803915
     0.750291581  0.750291581  0.647948439
     0.000000000  0.500000000  0.648058606
     0.250000000  0.000000000  0.450536747
     0.500000000  0.250000000  0.450536747
     0.250000000  0.250000000  0.351610242
     0.500000000  0.000000000  0.351610242
     0.249730657  0.000000000  0.650054926
     0.500000000  0.248706670  0.650130102
     0.249982468  0.249982468  0.549624565
     0.500000000  0.000000000  0.549547783
     0.250000000  0.500000000  0.450536747
     0.500000000  0.750000000  0.450536747
     0.250000000  0.750000000  0.351610242
     0.500000000  0.500000000  0.351610242
     0.248706670  0.500000000  0.650130102
     0.500000000  0.751293330  0.650130102
     0.249982468  0.750017532  0.549624565
     0.500000000  0.500000000  0.550094974
     0.750000000  0.000000000  0.450536747
     0.000000000  0.250000000  0.450536747
     0.750000000  0.250000000  0.351610242
     0.000000000  0.000000000  0.351610242
     0.750269343  0.000000000  0.650054926
     0.000000000  0.249730657  0.650054926
     0.750017532  0.249982468  0.549624565
     0.000000000  0.000000000  0.549558333
     0.750000000  0.500000000  0.450536747
     0.000000000  0.750000000  0.450536747
     0.750000000  0.750000000  0.351610242
     0.000000000  0.500000000  0.351610242
     0.751293330  0.500000000  0.650130102
     0.000000000  0.750269343  0.650054926
     0.750017532  0.750017532  0.549624565
     0.000000000  0.500000000  0.549547783

  ion indices of the primitive-cell ions
   primitive index   ion index
                 1           1
                 2           2
                 3           3
                 4           4
                 5           5
                 6           6
                 7           7
                 8           8
                 9           9
                10          10
                11          11
                12          12
                13          13
                14          14
                15          15
                16          16
                17          17
                18          18
                19          19
                20          20
                21          21
                22          22
                23          23
                24          24
                25          25
                26          26
                27          27
                28          28
                29          29
                30          30
                31          31
                32          32
                33          33
                34          34
                35          35
                36          36
                37          37
                38          38
                39          39
                40          40
                41          41
                42          42
                43          43
                44          44
                45          45
                46          46
                47          47
                48          48
                49          49
                50          50
                51          51
                52          52
                53          53
                54          54
                55          55
                56          56
                57          57
                58          58
                59          59
                60          60
                61          61
                62          62
                63          63
                64          64
                65          65
                66          66

----------------------------------------------------------------------------------------



 KPOINTS: pymatgen v2020.8.13 with grid density =

Automatic generation of k-mesh.
 Grid dimensions read from file:
 generate k-points for:    2    2    1

 Generating k-lattice:

  Cartesian coordinates                     Fractional coordinates (reciprocal lattice)
     0.059237619  0.000000000  0.000000000     0.500000000  0.000000000  0.000000000
     0.000000000  0.059237619  0.000000000     0.000000000  0.500000000  0.000000000
     0.000000000  0.000000000  0.046881366     0.000000000  0.000000000  1.000000000

  Length of vectors
     0.059237619  0.059237619  0.046881366

  Shift w.r.t. Gamma in fractional coordinates (k-lattice)
     0.000000000  0.000000000  0.000000000


 Subroutine IBZKPT returns following result:
 ===========================================

 Found      3 irreducible k-points:

 Following reciprocal coordinates:
            Coordinates               Weight
  0.000000  0.000000  0.000000      1.000000
  0.500000  0.000000  0.000000      2.000000
  0.500000  0.500000  0.000000      1.000000

 Following cartesian coordinates:
            Coordinates               Weight
  0.000000  0.000000  0.000000      1.000000
  0.059238  0.000000  0.000000      2.000000
  0.059238  0.059238  0.000000      1.000000



--------------------------------------------------------------------------------------------------------




 Dimension of arrays:
   k-points           NKPTS =      3   k-points in BZ     NKDIM =      3   number of bands    NBANDS=    304
   number of dos      NEDOS =    301   number of ions     NIONS =     66
   non local maximal  LDIM  =      5   non local SUM 2l+1 LMDIM =     13
   total plane-waves  NPLWV = 882000
   max r-space proj   IRMAX =      1   max aug-charges    IRDMAX=  11637
   dimension x,y,z NGX =    70 NGY =   70 NGZ =  180
   dimension x,y,z NGXF=   140 NGYF=  140 NGZF=  360
   support grid    NGXF=   140 NGYF=  140 NGZF=  360
   ions per type =               1   1  32  32
   NGX,Y,Z   is equivalent  to a cutoff of  13.79, 13.79, 14.03 a.u.
   NGXF,Y,Z  is equivalent  to a cutoff of  27.57, 27.57, 28.06 a.u.

 SYSTEM =  MgO-rocksalt
 POSCAR =   C  O Mg  O

 Startparameter for this run:
   NWRITE =      2    write-flag & timer
   PREC   = accura    normal or accurate (medium, high low for compatibility)
   ISTART =      0    job   : 0-new  1-cont  2-samecut
   ICHARG =      2    charge: 1-file 2-atom 10-const
   ISPIN  =      1    spin polarized calculation?
   LNONCOLLINEAR =      F non collinear calculations
   LSORBIT =      F    spin-orbit coupling
   INIWAV =      1    electr: 0-lowe 1-rand  2-diag
   LASPH  =      T    aspherical Exc in radial PAW
 Electronic Relaxation 1
   ENCUT  =  600.0 eV  44.10 Ry    6.64 a.u.  16.86 16.86 42.60*2*pi/ulx,y,z
   ENINI  =  600.0     initial cutoff
   ENAUG  =  758.8 eV  augmentation charge cutoff
   NELM   =    200;   NELMIN=  8; NELMDL= -5     # of ELM steps
   EDIFF  = 0.1E-05   stopping-criterion for ELM
   LREAL  =      F    real-space projection
   NLSPLINE    = F    spline interpolate recip. space projectors
   LCOMPAT=      F    compatible to vasp.4.4
   GGA_COMPAT  = T    GGA compatible to vasp.4.4-vasp.4.6
   LMAXPAW     = -100 max onsite density
   LMAXMIX     =    2 max onsite mixed and CHGCAR
   VOSKOWN=      0    Vosko Wilk Nusair interpolation
   ROPT   =    0.00000   0.00000   0.00000   0.00000
 Ionic relaxation
   EDIFFG = -.1E-01   stopping-criterion for IOM
   NSW    =      0    number of steps for IOM
   NBLOCK =      1;   KBLOCK =      1    inner block; outer block
   IBRION =     -1    ionic relax: 0-MD 1-quasi-New 2-CG
   NFREE  =      0    steps in history (QN), initial steepest desc. (CG)
   ISIF   =      2    stress and relaxation
   IWAVPR =     10    prediction:  0-non 1-charg 2-wave 3-comb
   ISYM   =      2    0-nonsym 1-usesym 2-fastsym
   LCORR  =      T    Harris-Foulkes like correction to forces

   POTIM  = 0.5000    time-step for ionic-motion
   TEIN   =    0.0    initial temperature
   TEBEG  =    0.0;   TEEND  =   0.0 temperature during run
   SMASS  =  -3.00    Nose mass-parameter (am)
   estimated Nose-frequenzy (Omega)   =  0.10E-29 period in steps = 0.13E+47 mass=  -0.163E-26a.u.
   SCALEE = 1.0000    scale energy and forces
   NPACO  =    256;   APACO  = 10.0  distance and # of slots for P.C.
   PSTRESS=    0.0 pullay stress

  Mass of Ions in am
   POMASS =  12.01 16.00 24.30 16.00
  Ionic Valenz
   ZVAL   =   4.00  6.00  8.00  6.00
  Atomic Wigner-Seitz radii
   RWIGS  =  -1.00 -1.00 -1.00 -1.00
  virtual crystal weights
   VCA    =   1.00  1.00  1.00  1.00
   NELECT =     458.0000    total number of electrons
   NUPDOWN=      -1.0000    fix difference up-down

 DOS related values:
   EMIN   =  10.00;   EMAX   =-10.00  energy-range for DOS
   EFERMI =   0.00
   ISMEAR =     0;   SIGMA  =   0.05  broadening in eV -4-tet -1-fermi 0-gaus

 Electronic relaxation 2 (details)
   IALGO  =     58    algorithm
   LDIAG  =      T    sub-space diagonalisation (order eigenvalues)
   LSUBROT=      F    optimize rotation matrix (better conditioning)
   TURBO    =      0    0=normal 1=particle mesh
   IRESTART =      0    0=no restart 2=restart with 2 vectors
   NREBOOT  =      0    no. of reboots
   NMIN     =      0    reboot dimension
   EREF     =   0.00    reference energy to select bands
   IMIX   =      4    mixing-type and parameters
     AMIX     =   0.40;   BMIX     =  1.00
     AMIX_MAG =   1.60;   BMIX_MAG =  1.00
     AMIN     =   0.10
     WC   =   100.;   INIMIX=   1;  MIXPRE=   1;  MAXMIX= -45

 Intra band minimization:
   WEIMIN = 0.0000     energy-eigenvalue tresh-hold
   EBREAK =  0.82E-09  absolut break condition
   DEPER  =   0.30     relativ break condition

   TIME   =   0.40     timestep for ELM

  volume/ion in A,a.u.               =      23.03       155.38
  Fermi-wavevector in a.u.,A,eV,Ry     =   1.097611  2.074184 16.391619  1.204750
  Thomas-Fermi vector in A             =   2.233974

 Write flags
   LWAVE        =      F    write WAVECAR
   LDOWNSAMPLE  =      F    k-point downsampling of WAVECAR
   LCHARG       =      F    write CHGCAR
   LVTOT        =      F    write LOCPOT, total local potential
   LVHAR        =      F    write LOCPOT, Hartree potential only
   LELF         =      F    write electronic localiz. function (ELF)
   LORBIT       =      0    0 simple, 1 ext, 2 COOP (PROOUT), +10 PAW based schemes


 Dipole corrections
   LMONO  =      F    monopole corrections only (constant potential shift)
   LDIPOL =      T    correct potential (dipole corrections)
   IDIPOL =      3    1-x, 2-y, 3-z, 4-all directions
   EPSILON=  1.0000000 bulk dielectric constant

 Exchange correlation treatment:
   GGA     =    MK    GGA type
   LEXCH   =    43    internal setting for exchange type
   LIBXC   =     F    Libxc
   VOSKOWN =     0    Vosko Wilk Nusair interpolation
   LHFCALC =     F    Hartree Fock is set to
   LHFONE  =     F    Hartree Fock one center treatment
   AEXX    =    0.0000 exact exchange contribution

 vdW DFT:
   LUSE_VDW   =     T    switch on vdW DFT
   Zab_VDW    =******    correlation parameter
   PARAM1     =0.1234
   PARAM2     =0.7114
   PARAM3     =0.0000
   -- rVV10 --
   BPARAM     = 6.3000
   CPARAM     = 0.0093

 Linear response parameters
   LEPSILON=     F    determine dielectric tensor
   LRPA    =     F    only Hartree local field effects (RPA)
   LNABLA  =     F    use nabla operator in PAW spheres
   LVEL    =     F    velocity operator in full k-point grid
   CSHIFT  =0.1000    complex shift for real part using Kramers Kronig
   OMEGAMAX=  -1.0    maximum frequency
   DEG_THRESHOLD= 0.2000000E-02 threshold for treating states as degnerate
   RTIME   =   -0.100 relaxation time in fs
  (WPLASMAI=    0.000 imaginary part of plasma frequency in eV, 0.658/RTIME)
   DFIELD  = 0.0000000 0.0000000 0.0000000 field for delta impulse in time

  Optional k-point grid parameters
   LKPOINTS_OPT  =     F    use optional k-point grid
   KPOINTS_OPT_MODE=     1    mode for optional k-point grid

 Orbital magnetization related:
   ORBITALMAG=     F  switch on orbital magnetization
   LCHIMAG   =     F  perturbation theory with respect to B field
   DQ        =  0.001000  dq finite difference perturbation B field
   LLRAUG    =     F  two centre corrections for induced B field



--------------------------------------------------------------------------------------------------------


 Static calculation
 charge density and potential will be updated during run
 non-spin polarized calculation
 Conjugate gradient for all bands (Freysoldt, et al. PRB 79, 241103 (2009))
 preconditioned conjugated gradient
 perform sub-space diagonalisation
    before iterative eigenvector-optimisation
 modified Broyden-mixing scheme, WC =      100.0
 initial mixing is a Kerker type mixing with AMIX =  0.4000 and BMIX =      1.0000
 Hartree-type preconditioning will be used
 using additional bands           75
 reciprocal scheme for non local part
 use partial core corrections
 no Harris-corrections to forces
 use gradient corrections
 use of overlap-Matrix (Vanderbilt PP)
 Gauss-broadening in eV      SIGMA  =   0.05


--------------------------------------------------------------------------------------------------------


  energy-cutoff  :      600.00
  volume of cell :     1519.65
      direct lattice vectors                 reciprocal lattice vectors
     8.440582262  0.000000000  0.000000000     0.118475239  0.000000000  0.000000000
     0.000000000  8.440582262  0.000000000     0.000000000  0.118475239  0.000000000
     0.000000000  0.000000000 21.330436697     0.000000000  0.000000000  0.046881366

  length of vectors
     8.440582262  8.440582262 21.330436697     0.118475239  0.118475239  0.046881366



 k-points in units of 2pi/SCALE and weight: pymatgen v2020.8.13 with grid density =
   0.00000000  0.00000000  0.00000000       0.250
   0.05923762  0.00000000  0.00000000       0.500
   0.05923762  0.05923762  0.00000000       0.250

 k-points in reciprocal lattice and weights: pymatgen v2020.8.13 with grid density =
   0.00000000  0.00000000  0.00000000       0.250
   0.50000000  0.00000000  0.00000000       0.500
   0.50000000  0.50000000  0.00000000       0.250

 position of ions in fractional coordinates (direct lattice)
   0.50000000  0.50000000  0.76349606
   0.50000000  0.50000000  0.81702507
   0.25000000  0.00000000  0.35161024
   0.50000000  0.25000000  0.35161024
   0.25000000  0.25000000  0.45053675
   0.50000000  0.00000000  0.45053675
   0.25009603  0.00000000  0.54980391
   0.50000000  0.25047830  0.55003764
   0.24970842  0.24970842  0.64794844
   0.50000000  0.00000000  0.64805861
   0.25000000  0.50000000  0.35161024
   0.50000000  0.75000000  0.35161024
   0.25000000  0.75000000  0.45053675
   0.50000000  0.50000000  0.45053675
   0.25047830  0.50000000  0.55003764
   0.50000000  0.74952170  0.55003764
   0.24970842  0.75029158  0.64794844
   0.50000000  0.50000000  0.65064531
   0.75000000  0.00000000  0.35161024
   0.00000000  0.25000000  0.35161024
   0.75000000  0.25000000  0.45053675
   0.00000000  0.00000000  0.45053675
   0.74990397  0.00000000  0.54980391
   0.00000000  0.25009603  0.54980391
   0.75029158  0.24970842  0.64794844
   0.00000000  0.00000000  0.64812039
   0.75000000  0.50000000  0.35161024
   0.00000000  0.75000000  0.35161024
   0.75000000  0.75000000  0.45053675
   0.00000000  0.50000000  0.45053675
   0.74952170  0.50000000  0.55003764
   0.00000000  0.74990397  0.54980391
   0.75029158  0.75029158  0.64794844
   0.00000000  0.50000000  0.64805861
   0.25000000  0.00000000  0.45053675
   0.50000000  0.25000000  0.45053675
   0.25000000  0.25000000  0.35161024
   0.50000000  0.00000000  0.35161024
   0.24973066  0.00000000  0.65005493
   0.50000000  0.24870667  0.65013010
   0.24998247  0.24998247  0.54962457
   0.50000000  0.00000000  0.54954778
   0.25000000  0.50000000  0.45053675
   0.50000000  0.75000000  0.45053675
   0.25000000  0.75000000  0.35161024
   0.50000000  0.50000000  0.35161024
   0.24870667  0.50000000  0.65013010
   0.50000000  0.75129333  0.65013010
   0.24998247  0.75001753  0.54962457
   0.50000000  0.50000000  0.55009497
   0.75000000  0.00000000  0.45053675
   0.00000000  0.25000000  0.45053675
   0.75000000  0.25000000  0.35161024
   0.00000000  0.00000000  0.35161024
   0.75026934  0.00000000  0.65005493
   0.00000000  0.24973066  0.65005493
   0.75001753  0.24998247  0.54962457
   0.00000000  0.00000000  0.54955833
   0.75000000  0.50000000  0.45053675
   0.00000000  0.75000000  0.45053675
   0.75000000  0.75000000  0.35161024
   0.00000000  0.50000000  0.35161024
   0.75129333  0.50000000  0.65013010
   0.00000000  0.75026934  0.65005493
   0.75001753  0.75001753  0.54962457
   0.00000000  0.50000000  0.54954778

 position of ions in cartesian coordinates  (Angst):
   4.22029113  4.22029113 16.28570432
   4.22029113  4.22029113 17.42750155
   2.11014557  0.00000000  7.50000000
   4.22029113  2.11014557  7.50000000
   2.11014557  2.11014557  9.61014557
   4.22029113  0.00000000  9.61014557
   2.11095615  0.00000000 11.72755760
   4.22029113  2.11418270 11.73254310
   2.10768445  2.10768445 13.82102317
   4.22029113  0.00000000 13.82337306
   2.11014557  4.22029113  7.50000000
   4.22029113  6.33043670  7.50000000
   2.11014557  6.33043670  9.61014557
   4.22029113  4.22029113  9.61014557
   2.11418270  4.22029113 11.73254310
   4.22029113  6.32639956 11.73254310
   2.10768445  6.33289781 13.82102317
   4.22029113  4.22029113 13.87854862
   6.33043670  0.00000000  7.50000000
   0.00000000  2.11014557  7.50000000
   6.33043670  2.11014557  9.61014557
   0.00000000  0.00000000  9.61014557
   6.32962612  0.00000000 11.72755760
   0.00000000  2.11095615 11.72755760
   6.33289781  2.10768445 13.82102317
   0.00000000  0.00000000 13.82469089
   6.33043670  4.22029113  7.50000000
   0.00000000  6.33043670  7.50000000
   6.33043670  6.33043670  9.61014557
   0.00000000  4.22029113  9.61014557
   6.32639956  4.22029113 11.73254310
   0.00000000  6.32962612 11.72755760
   6.33289781  6.33289781 13.82102317
   0.00000000  4.22029113 13.82337306
   2.11014557  0.00000000  9.61014557
   4.22029113  2.11014557  9.61014557
   2.11014557  2.11014557  7.50000000
   4.22029113  0.00000000  7.50000000
   2.10787215  0.00000000 13.86595544
   4.22029113  2.09922911 13.86755898
   2.10999758  2.10999758 11.72373199
   4.22029113  0.00000000 11.72209419
   2.11014557  4.22029113  9.61014557
   4.22029113  6.33043670  9.61014557
   2.11014557  6.33043670  7.50000000
   4.22029113  4.22029113  7.50000000
   2.09922911  4.22029113 13.86755898
   4.22029113  6.34135315 13.86755898
   2.10999758  6.33058468 11.72373199
   4.22029113  4.22029113 11.73376603
   6.33043670  0.00000000  9.61014557
   0.00000000  2.11014557  9.61014557
   6.33043670  2.11014557  7.50000000
   0.00000000  0.00000000  7.50000000
   6.33271011  0.00000000 13.86595544
   0.00000000  2.10787215 13.86595544
   6.33058468  2.10999758 11.72373199
   0.00000000  0.00000000 11.72231923
   6.33043670  4.22029113  9.61014557
   0.00000000  6.33043670  9.61014557
   6.33043670  6.33043670  7.50000000
   0.00000000  4.22029113  7.50000000
   6.34135315  4.22029113 13.86755898
   0.00000000  6.33271011 13.86595544
   6.33058468  6.33058468 11.72373199
   0.00000000  4.22029113 11.72209419



--------------------------------------------------------------------------------------------------------


 k-point   1 :   0.0000 0.0000 0.0000  plane waves:   50729
 k-point   2 :   0.5000 0.0000 0.0000  plane waves:   50790
 k-point   3 :   0.5000 0.5000 0.0000  plane waves:   50752

 maximum and minimum number of plane-waves per node :     25432    25334

 maximum number of plane-waves:     50790
 maximum index in each direction:
   IXMAX=   16   IYMAX=   16   IZMAX=   42
   IXMIN=  -17   IYMIN=  -17   IZMIN=  -42


 parallel 3D FFT for wavefunctions:
    minimum data exchange during FFTs selected (reduces bandwidth)
 parallel 3D FFT for charge:
    minimum data exchange during FFTs selected (reduces bandwidth)


 total amount of memory used by VASP MPI-rank0   132524. kBytes
=======================================================================

   base      :      30000. kBytes
   nonl-proj :      58834. kBytes
   fftplans  :      14615. kBytes
   grid      :      21323. kBytes
   one-center:        267. kBytes
   wavefun   :       7485. kBytes

     INWAV:  cpu time      0.0000: real time      0.0000
 Broyden mixing: mesh for mixing (old mesh)
   NGX = 33   NGY = 33   NGZ = 85
  (NGX  =140   NGY  =140   NGZ  =360)
  gives a total of  92565 points

 initial charge density was supplied:
 charge density of overlapping atoms calculated
 number of electron     458.0000000 magnetization
 keeping initial charge density in first step


--------------------------------------------------------------------------------------------------------


 Maximum index for augmentation-charges          608 (set IRDMAX)


--------------------------------------------------------------------------------------------------------


 First call to EWALD:  gamma=   0.154
 Maximum number of real-space cells 4x 4x 2
 Maximum number of reciprocal cells 2x 2x 5

    FEWALD:  cpu time      0.0014: real time      0.0015


--------------------------------------- Iteration      1(   1)  ---------------------------------------


vdW kernel read from vdw_kernel.bindat
  0.0000  0.2424  0.5071  0.7962  1.1119  1.4567  1.8333  2.2446  2.6937  3.1842
  3.7199  4.3049  4.9438  5.6415  6.4036  7.2358  8.1446  9.1372 10.2212 11.4050
 12.6979 14.1099 15.6519 17.3360 19.1751 21.1837 23.3773 25.7729 28.3892 31.2465
 34.3669 37.7748 41.4965 45.5611 50.0000

    POTLOK:  cpu time      0.4685: real time      0.4802
    SETDIJ:  cpu time      0.0868: real time      0.0870
    TRIAL :  cpu time      3.2362: real time      3.2493
    CORREC:  cpu time      0.0003: real time      0.0003
    --------------------------------------------
      LOOP:  cpu time      3.7952: real time      3.8215

 eigenvalue-minimisations  :  2280
 total energy-change (2. order) : 0.3508391E+04  (-0.3133662E+05)
 number of electron     458.0000000 magnetization
 augmentation part      458.0000000 magnetization

 DIPCOR: dipole corrections for dipol
 direction  3 min pos     1,
 dipolmoment           0.000000      0.000000     -0.000236 electrons x Angstroem
 Tr[quadrupol]     -6317.835838

 energy correction for charged system         0.000000 eV
 dipol+quadrupol energy correction           -0.000000 eV
 added-field ion interaction          0.001845 eV  (added to PSCEN)


 Free energy of the ion-electron system (eV)
  ---------------------------------------------------
  alpha Z        PSCENC =       908.06537055
  Ewald energy   TEWEN  =    137680.68694039
  -Hartree energ DENC   =   -173774.80439479
  -exchange      EXHF   =         0.00000000
  -V(xc)+E(xc)   XCENC  =      1784.33147659
  PAW double counting   =     32339.39176546   -36140.44900584
  entropy T*S    EENTRO =        -0.02710707
  eigenvalues    EBANDS =     -7654.73635471
  atomic energy  EATOM  =     48365.93245855
  ---------------------------------------------------
  free energy    TOTEN  =      3508.39114913 eV

  energy without entropy =     3508.41825620  energy(sigma->0) =     3508.40470266


--------------------------------------------------------------------------------------------------------




--------------------------------------- Iteration      1(   2)  ---------------------------------------


    TRIAL :  cpu time      3.1670: real time      3.1798
    CORREC:  cpu time      0.0001: real time      0.0001
    --------------------------------------------
      LOOP:  cpu time      3.1682: real time      3.1855

 eigenvalue-minimisations  :  2280
 total energy-change (2. order) :-0.3646729E+04  (-0.3631601E+04)
 number of electron     458.0000000 magnetization
 augmentation part      458.0000000 magnetization

 DIPCOR: dipole corrections for dipol
 direction  3 min pos     1,
 dipolmoment           0.000000      0.000000     -0.000236 electrons x Angstroem
 Tr[quadrupol]     -6317.835838

 energy correction for charged system         0.000000 eV
 dipol+quadrupol energy correction           -0.000000 eV
 added-field ion interaction          0.001845 eV  (added to PSCEN)


 Free energy of the ion-electron system (eV)
  ---------------------------------------------------
  alpha Z        PSCENC =       908.06537055
  Ewald energy   TEWEN  =    137680.68694039
  -Hartree energ DENC   =   -173774.80439479
  -exchange      EXHF   =         0.00000000
  -V(xc)+E(xc)   XCENC  =      1784.33147659
  PAW double counting   =     32339.39176546   -36140.44900584
  entropy T*S    EENTRO =        -0.00000000
  eigenvalues    EBANDS =    -11301.49212981
  atomic energy  EATOM  =     48365.93245855
  ---------------------------------------------------
  free energy    TOTEN  =      -138.33751890 eV

  energy without entropy =     -138.33751890  energy(sigma->0) =     -138.33751890


--------------------------------------------------------------------------------------------------------




--------------------------------------- Iteration      1(   3)  ---------------------------------------


    TRIAL :  cpu time      3.8755: real time      3.8903
    CORREC:  cpu time      0.0001: real time      0.0001
    --------------------------------------------
      LOOP:  cpu time      3.8775: real time      3.8943

 eigenvalue-minimisations  :  2584
 total energy-change (2. order) :-0.2019825E+03  (-0.2017066E+03)
 number of electron     458.0000000 magnetization
 augmentation part      458.0000000 magnetization

 DIPCOR: dipole corrections for dipol
 direction  3 min pos     1,
 dipolmoment           0.000000      0.000000     -0.000236 electrons x Angstroem
 Tr[quadrupol]     -6317.835838

 energy correction for charged system         0.000000 eV
 dipol+quadrupol energy correction           -0.000000 eV
 added-field ion interaction          0.001845 eV  (added to PSCEN)


 Free energy of the ion-electron system (eV)
  ---------------------------------------------------
  alpha Z        PSCENC =       908.06537055
  Ewald energy   TEWEN  =    137680.68694039
  -Hartree energ DENC   =   -173774.80439479
  -exchange      EXHF   =         0.00000000
  -V(xc)+E(xc)   XCENC  =      1784.33147659
  PAW double counting   =     32339.39176546   -36140.44900584
  entropy T*S    EENTRO =        -0.00000000
  eigenvalues    EBANDS =    -11503.47460092
  atomic energy  EATOM  =     48365.93245855
  ---------------------------------------------------
  free energy    TOTEN  =      -340.31999001 eV

  energy without entropy =     -340.31999001  energy(sigma->0) =     -340.31999001


--------------------------------------------------------------------------------------------------------




--------------------------------------- Iteration      1(   4)  ---------------------------------------


    TRIAL :  cpu time      2.9423: real time      2.9540
    CORREC:  cpu time      0.0001: real time      0.0001
    --------------------------------------------
      LOOP:  cpu time      2.9437: real time      2.9579

 eigenvalue-minimisations  :  2128
 total energy-change (2. order) :-0.1727028E+01  (-0.1726529E+01)
 number of electron     458.0000000 magnetization
 augmentation part      458.0000000 magnetization

 DIPCOR: dipole corrections for dipol
 direction  3 min pos     1,
 dipolmoment           0.000000      0.000000     -0.000236 electrons x Angstroem
 Tr[quadrupol]     -6317.835838

 energy correction for charged system         0.000000 eV
 dipol+quadrupol energy correction           -0.000000 eV
 added-field ion interaction          0.001845 eV  (added to PSCEN)


 Free energy of the ion-electron system (eV)
  ---------------------------------------------------
  alpha Z        PSCENC =       908.06537055
  Ewald energy   TEWEN  =    137680.68694039
  -Hartree energ DENC   =   -173774.80439479
  -exchange      EXHF   =         0.00000000
  -V(xc)+E(xc)   XCENC  =      1784.33147659
  PAW double counting   =     32339.39176546   -36140.44900584
  entropy T*S    EENTRO =        -0.00000000
  eigenvalues    EBANDS =    -11505.20162868
  atomic energy  EATOM  =     48365.93245855
  ---------------------------------------------------
  free energy    TOTEN  =      -342.04701778 eV

  energy without entropy =     -342.04701778  energy(sigma->0) =     -342.04701778


--------------------------------------------------------------------------------------------------------




--------------------------------------- Iteration      1(   5)  ---------------------------------------


    TRIAL :  cpu time      3.6034: real time      3.6183
    CORREC:  cpu time      0.0001: real time      0.0001
    CHARGE:  cpu time      0.1253: real time      0.1259
    --------------------------------------------
      LOOP:  cpu time      3.7309: real time      3.7485

 eigenvalue-minimisations  :  2432
 total energy-change (2. order) :-0.2444067E-01  (-0.2443949E-01)
 number of electron     457.9999544 magnetization
 augmentation part      159.5950114 magnetization

 DIPCOR: dipole corrections for dipol
 direction  3 min pos     1,
 dipolmoment           0.000000      0.000000     -0.000236 electrons x Angstroem
 Tr[quadrupol]     -6317.835838

 energy correction for charged system         0.000000 eV
 dipol+quadrupol energy correction           -0.000000 eV
 added-field ion interaction          0.001845 eV  (added to PSCEN)


 Free energy of the ion-electron system (eV)
  ---------------------------------------------------
  alpha Z        PSCENC =       908.06537055
  Ewald energy   TEWEN  =    137680.68694039
  -Hartree energ DENC   =   -173774.80439479
  -exchange      EXHF   =         0.00000000
  -V(xc)+E(xc)   XCENC  =      1784.33147659
  PAW double counting   =     32339.39176546   -36140.44900584
  entropy T*S    EENTRO =        -0.00000000
  eigenvalues    EBANDS =    -11505.22606935
  atomic energy  EATOM  =     48365.93245855
  ---------------------------------------------------
  free energy    TOTEN  =      -342.07145845 eV

  energy without entropy =     -342.07145845  energy(sigma->0) =     -342.07145845


--------------------------------------------------------------------------------------------------------




--------------------------------------- Iteration      1(   6)  ---------------------------------------


    POTLOK:  cpu time      0.3081: real time      0.3091
    SETDIJ:  cpu time      0.0864: real time      0.0866
    TRIAL :  cpu time      0.9081: real time      0.9121
    CORREC:  cpu time      0.8066: real time      0.8094
    CHARGE:  cpu time      0.1224: real time      0.1229
    --------------------------------------------
      LOOP:  cpu time      2.2332: real time      2.2441

 eigenvalue-minimisations  :     0
 total energy-change (2. order) : 0.1776683E+03  (-0.9888393E+02)
 number of electron     457.9999544 magnetization
 augmentation part      156.6788828 magnetization

 DIPCOR: dipole corrections for dipol
 direction  3 min pos     1,
 dipolmoment           0.000000      0.000000      0.076047 electrons x Angstroem
 Tr[quadrupol]     -6350.333741

 energy correction for charged system         0.000000 eV
 dipol+quadrupol energy correction           -0.000344 eV
 added-field ion interaction         -0.593540 eV  (added to PSCEN)


 Free energy of the ion-electron system (eV)
  ---------------------------------------------------
  alpha Z        PSCENC =       905.38892310
  Ewald energy   TEWEN  =    137680.68694039
  -Hartree energ DENC   =   -177672.40368548
  -exchange      EXHF   =         0.00000000
  -V(xc)+E(xc)   XCENC  =      1908.55688678
  PAW double counting   =     36961.49711834   -40709.60806358
  entropy T*S    EENTRO =        -0.00000000
  eigenvalues    EBANDS =     -7604.45372730
  atomic energy  EATOM  =     48365.93245855
  ---------------------------------------------------
  free energy    TOTEN  =      -164.40314920 eV

  energy without entropy =     -164.40314920  energy(sigma->0) =     -164.40314920


--------------------------------------------------------------------------------------------------------




--------------------------------------- Iteration      1(   7)  ---------------------------------------


    POTLOK:  cpu time      0.3114: real time      0.3123
    SETDIJ:  cpu time      0.0867: real time      0.0868
    TRIAL :  cpu time      0.9049: real time      0.9086
    CORREC:  cpu time      0.7908: real time      0.7932
    CHARGE:  cpu time      0.1250: real time      0.1254
    --------------------------------------------
      LOOP:  cpu time      2.2200: real time      2.2302

 eigenvalue-minimisations  :     0
 total energy-change (2. order) :-0.9962788E+02  (-0.6605581E+01)
 number of electron     457.9999549 magnetization
 augmentation part      154.8972992 magnetization

 DIPCOR: dipole corrections for dipol
 direction  3 min pos     1,
 dipolmoment           0.000000      0.000000      0.110842 electrons x Angstroem
 Tr[quadrupol]     -6358.359004

 energy correction for charged system         0.000000 eV
 dipol+quadrupol energy correction           -0.000731 eV
 added-field ion interaction         -0.865115 eV  (added to PSCEN)


 Free energy of the ion-electron system (eV)
  ---------------------------------------------------
  alpha Z        PSCENC =       907.08190171
  Ewald energy   TEWEN  =    137680.68694039
  -Hartree energ DENC   =   -175734.29917201
  -exchange      EXHF   =         0.00000000
  -V(xc)+E(xc)   XCENC  =      1838.65503155
  PAW double counting   =     35776.73360626   -39599.43469011
  entropy T*S    EENTRO =        -0.00000000
  eigenvalues    EBANDS =     -9499.38710895
  atomic energy  EATOM  =     48365.93245855
  ---------------------------------------------------
  free energy    TOTEN  =      -264.03103263 eV

  energy without entropy =     -264.03103263  energy(sigma->0) =     -264.03103263


--------------------------------------------------------------------------------------------------------




--------------------------------------- Iteration      1(   8)  ---------------------------------------


    POTLOK:  cpu time      0.3091: real time      0.3101
    SETDIJ:  cpu time      0.0851: real time      0.0853
    TRIAL :  cpu time      0.8985: real time      0.9024
    CORREC:  cpu time      0.7879: real time      0.7905
    CHARGE:  cpu time      0.1239: real time      0.1244
    --------------------------------------------
      LOOP:  cpu time      2.2061: real time      2.2169

 eigenvalue-minimisations  :     0
 total energy-change (2. order) :-0.6620203E+01  (-0.3987323E+01)
 number of electron     457.9999547 magnetization
 augmentation part      155.0232867 magnetization

 DIPCOR: dipole corrections for dipol
 direction  3 min pos     1,
 dipolmoment           0.000000      0.000000      0.086922 electrons x Angstroem
 Tr[quadrupol]     -6357.274827

 energy correction for charged system         0.000000 eV
 dipol+quadrupol energy correction           -0.000450 eV
 added-field ion interaction         -0.678419 eV  (added to PSCEN)


 Free energy of the ion-electron system (eV)
  ---------------------------------------------------
  alpha Z        PSCENC =       907.23341793
  Ewald energy   TEWEN  =    137680.68694039
  -Hartree energ DENC   =   -175634.72575846
  -exchange      EXHF   =         0.00000000
  -V(xc)+E(xc)   XCENC  =      1829.18121958
  PAW double counting   =     35697.91355656   -39453.13787115
  entropy T*S    EENTRO =        -0.00000000
  eigenvalues    EBANDS =     -9663.73519940
  atomic energy  EATOM  =     48365.93245855
  ---------------------------------------------------
  free energy    TOTEN  =      -270.65123600 eV

  energy without entropy =     -270.65123600  energy(sigma->0) =     -270.65123600


--------------------------------------------------------------------------------------------------------




--------------------------------------- Iteration      1(   9)  ---------------------------------------


    POTLOK:  cpu time      0.3094: real time      0.3103
    SETDIJ:  cpu time      0.0858: real time      0.0860
    TRIAL :  cpu time      0.8927: real time      0.8964
    CORREC:  cpu time      0.7873: real time      0.7897
    CHARGE:  cpu time      0.1221: real time      0.1225
    --------------------------------------------
      LOOP:  cpu time      2.1988: real time      2.2094

 eigenvalue-minimisations  :     0
 total energy-change (2. order) :-0.3929918E+01  (-0.1820001E+01)
 number of electron     457.9999547 magnetization
 augmentation part      155.0103461 magnetization

 DIPCOR: dipole corrections for dipol
 direction  3 min pos     1,
 dipolmoment           0.000000      0.000000      0.120526 electrons x Angstroem
 Tr[quadrupol]     -6350.692925

 energy correction for charged system         0.000000 eV
 dipol+quadrupol energy correction           -0.000865 eV
 added-field ion interaction         -0.940700 eV  (added to PSCEN)


 Free energy of the ion-electron system (eV)
  ---------------------------------------------------
  alpha Z        PSCENC =       907.44841020
  Ewald energy   TEWEN  =    137680.68694039
  -Hartree energ DENC   =   -175539.37099202
  -exchange      EXHF   =         0.00000000
  -V(xc)+E(xc)   XCENC  =      1828.95197049
  PAW double counting   =     35653.34291003   -39442.07964750
  entropy T*S    EENTRO =        -0.00000000
  eigenvalues    EBANDS =     -9729.49320408
  atomic energy  EATOM  =     48365.93245855
  ---------------------------------------------------
  free energy    TOTEN  =      -274.58115393 eV

  energy without entropy =     -274.58115393  energy(sigma->0) =     -274.58115393


--------------------------------------------------------------------------------------------------------




--------------------------------------- Iteration      1(  10)  ---------------------------------------


    POTLOK:  cpu time      0.3127: real time      0.3137
    SETDIJ:  cpu time      0.0849: real time      0.0850
    TRIAL :  cpu time      0.8930: real time      0.8969
    CORREC:  cpu time      0.7857: real time      0.7881
    CHARGE:  cpu time      0.1236: real time      0.1240
    --------------------------------------------
      LOOP:  cpu time      2.2019: real time      2.2118

 eigenvalue-minimisations  :     0
 total energy-change (2. order) :-0.1831953E+01  (-0.6204584E+00)
 number of electron     457.9999548 magnetization
 augmentation part      154.9454370 magnetization

 DIPCOR: dipole corrections for dipol
 direction  3 min pos     1,
 dipolmoment           0.000000      0.000000      0.139628 electrons x Angstroem
 Tr[quadrupol]     -6348.997771

 energy correction for charged system         0.000000 eV
 dipol+quadrupol energy correction           -0.001161 eV
 added-field ion interaction         -1.089788 eV  (added to PSCEN)


 Free energy of the ion-electron system (eV)
  ---------------------------------------------------
  alpha Z        PSCENC =       907.15639589
  Ewald energy   TEWEN  =    137680.68694039
  -Hartree energ DENC   =   -175362.40824260
  -exchange      EXHF   =         0.00000000
  -V(xc)+E(xc)   XCENC  =      1827.27343150
  PAW double counting   =     35544.37830746   -39340.69579836
  entropy T*S    EENTRO =        -0.00000000
  eigenvalues    EBANDS =     -9898.73659941
  atomic energy  EATOM  =     48365.93245855
  ---------------------------------------------------
  free energy    TOTEN  =      -276.41310658 eV

  energy without entropy =     -276.41310658  energy(sigma->0) =     -276.41310658


--------------------------------------------------------------------------------------------------------




--------------------------------------- Iteration      1(  11)  ---------------------------------------


    POTLOK:  cpu time      0.3125: real time      0.3135
    SETDIJ:  cpu time      0.0850: real time      0.0852
    TRIAL :  cpu time      0.8931: real time      0.8970
    CORREC:  cpu time      0.7855: real time      0.7882
    CHARGE:  cpu time      0.1232: real time      0.1237
    --------------------------------------------
      LOOP:  cpu time      2.2011: real time      2.2117

 eigenvalue-minimisations  :     0
 total energy-change (2. order) :-0.6226879E+00  (-0.2179062E+00)
 number of electron     457.9999548 magnetization
 augmentation part      155.0257601 magnetization

 DIPCOR: dipole corrections for dipol
 direction  3 min pos     1,
 dipolmoment           0.000000      0.000000      0.117551 electrons x Angstroem
 Tr[quadrupol]     -6349.865401

 energy correction for charged system         0.000000 eV
 dipol+quadrupol energy correction           -0.000823 eV
 added-field ion interaction         -0.917480 eV  (added to PSCEN)


 Free energy of the ion-electron system (eV)
  ---------------------------------------------------
  alpha Z        PSCENC =       906.99938608
  Ewald energy   TEWEN  =    137680.68694039
  -Hartree energ DENC   =   -175289.90644823
  -exchange      EXHF   =         0.00000000
  -V(xc)+E(xc)   XCENC  =      1826.24261774
  PAW double counting   =     35479.22046006   -39267.55943581
  entropy T*S    EENTRO =        -0.00000000
  eigenvalues    EBANDS =     -9978.65177331
  atomic energy  EATOM  =     48365.93245855
  ---------------------------------------------------
  free energy    TOTEN  =      -277.03579453 eV

  energy without entropy =     -277.03579453  energy(sigma->0) =     -277.03579453


--------------------------------------------------------------------------------------------------------




--------------------------------------- Iteration      1(  12)  ---------------------------------------


    POTLOK:  cpu time      0.3131: real time      0.3141
    SETDIJ:  cpu time      0.0851: real time      0.0853
    TRIAL :  cpu time      0.8890: real time      0.8929
    CORREC:  cpu time      0.7819: real time      0.7846
    CHARGE:  cpu time      0.1254: real time      0.1260
    --------------------------------------------
      LOOP:  cpu time      2.1971: real time      2.2071

 eigenvalue-minimisations  :     0
 total energy-change (2. order) :-0.2179090E+00  (-0.7840694E-01)
 number of electron     457.9999547 magnetization
 augmentation part      155.1335005 magnetization

 DIPCOR: dipole corrections for dipol
 direction  3 min pos     1,
 dipolmoment           0.000000      0.000000      0.103758 electrons x Angstroem
 Tr[quadrupol]     -6350.597198

 energy correction for charged system         0.000000 eV
 dipol+quadrupol energy correction           -0.000641 eV
 added-field ion interaction         -0.809829 eV  (added to PSCEN)


 Free energy of the ion-electron system (eV)
  ---------------------------------------------------
  alpha Z        PSCENC =       907.14007988
  Ewald energy   TEWEN  =    137680.68694039
  -Hartree energ DENC   =   -175311.46704852
  -exchange      EXHF   =         0.00000000
  -V(xc)+E(xc)   XCENC  =      1826.45115633
  PAW double counting   =     35464.46351714   -39250.77088900
  entropy T*S    EENTRO =        -0.00000000
  eigenvalues    EBANDS =     -9959.68991825
  atomic energy  EATOM  =     48365.93245855
  ---------------------------------------------------
  free energy    TOTEN  =      -277.25370348 eV

  energy without entropy =     -277.25370348  energy(sigma->0) =     -277.25370348


--------------------------------------------------------------------------------------------------------




--------------------------------------- Iteration      1(  13)  ---------------------------------------


    POTLOK:  cpu time      0.3125: real time      0.3135
    SETDIJ:  cpu time      0.0859: real time      0.0861
    TRIAL :  cpu time      0.8887: real time      0.8927
    CORREC:  cpu time      0.7874: real time      0.7900
    CHARGE:  cpu time      0.1220: real time      0.1226
    --------------------------------------------
      LOOP:  cpu time      2.1976: real time      2.2087

 eigenvalue-minimisations  :     0
 total energy-change (2. order) :-0.7841151E-01  (-0.3572838E-01)
 number of electron     457.9999547 magnetization
 augmentation part      155.1843923 magnetization

 DIPCOR: dipole corrections for dipol
 direction  3 min pos     1,
 dipolmoment           0.000000      0.000000      0.100459 electrons x Angstroem
 Tr[quadrupol]     -6351.024181

 energy correction for charged system         0.000000 eV
 dipol+quadrupol energy correction           -0.000601 eV
 added-field ion interaction         -0.784075 eV  (added to PSCEN)


 Free energy of the ion-electron system (eV)
  ---------------------------------------------------
  alpha Z        PSCENC =       907.25698092
  Ewald energy   TEWEN  =    137680.68694039
  -Hartree energ DENC   =   -175341.55138624
  -exchange      EXHF   =         0.00000000
  -V(xc)+E(xc)   XCENC  =      1826.73638316
  PAW double counting   =     35465.41043930   -39254.41029429
  entropy T*S    EENTRO =        -0.00000000
  eigenvalues    EBANDS =     -9927.39363678
  atomic energy  EATOM  =     48365.93245855
  ---------------------------------------------------
  free energy    TOTEN  =      -277.33211499 eV

  energy without entropy =     -277.33211499  energy(sigma->0) =     -277.33211499


--------------------------------------------------------------------------------------------------------




--------------------------------------- Iteration      1(  14)  ---------------------------------------


    POTLOK:  cpu time      0.3142: real time      0.3152
    SETDIJ:  cpu time      0.0853: real time      0.0854
    TRIAL :  cpu time      0.8912: real time      0.8950
    CORREC:  cpu time      0.7840: real time      0.7865
    CHARGE:  cpu time      0.1235: real time      0.1240
    --------------------------------------------
      LOOP:  cpu time      2.1998: real time      2.2101

 eigenvalue-minimisations  :     0
 total energy-change (2. order) :-0.3573906E-01  (-0.1657959E-01)
 number of electron     457.9999547 magnetization
 augmentation part      155.1758197 magnetization

 DIPCOR: dipole corrections for dipol
 direction  3 min pos     1,
 dipolmoment           0.000000      0.000000      0.100355 electrons x Angstroem
 Tr[quadrupol]     -6351.331800

 energy correction for charged system         0.000000 eV
 dipol+quadrupol energy correction           -0.000600 eV
 added-field ion interaction         -0.783263 eV  (added to PSCEN)


 Free energy of the ion-electron system (eV)
  ---------------------------------------------------
  alpha Z        PSCENC =       907.28196058
  Ewald energy   TEWEN  =    137680.68694039
  -Hartree energ DENC   =   -175356.66289373
  -exchange      EXHF   =         0.00000000
  -V(xc)+E(xc)   XCENC  =      1826.79438696
  PAW double counting   =     35468.57505930   -39259.42517031
  entropy T*S    EENTRO =        -0.00000000
  eigenvalues    EBANDS =     -9910.55059580
  atomic energy  EATOM  =     48365.93245855
  ---------------------------------------------------
  free energy    TOTEN  =      -277.36785405 eV

  energy without entropy =     -277.36785405  energy(sigma->0) =     -277.36785405


--------------------------------------------------------------------------------------------------------




--------------------------------------- Iteration      1(  15)  ---------------------------------------


    POTLOK:  cpu time      0.3144: real time      0.3153
    SETDIJ:  cpu time      0.0855: real time      0.0857
    TRIAL :  cpu time      0.8871: real time      0.8908
    CORREC:  cpu time      0.7848: real time      0.7872
    CHARGE:  cpu time      0.1215: real time      0.1220
    --------------------------------------------
      LOOP:  cpu time      2.1946: real time      2.2048

 eigenvalue-minimisations  :     0
 total energy-change (2. order) :-0.1658655E-01  (-0.7385713E-02)
 number of electron     457.9999547 magnetization
 augmentation part      155.1573200 magnetization

 DIPCOR: dipole corrections for dipol
 direction  3 min pos     1,
 dipolmoment           0.000000      0.000000      0.100157 electrons x Angstroem
 Tr[quadrupol]     -6351.571277

 energy correction for charged system         0.000000 eV
 dipol+quadrupol energy correction           -0.000597 eV
 added-field ion interaction         -0.781718 eV  (added to PSCEN)


 Free energy of the ion-electron system (eV)
  ---------------------------------------------------
  alpha Z        PSCENC =       907.27864079
  Ewald energy   TEWEN  =    137680.68694039
  -Hartree energ DENC   =   -175365.21025317
  -exchange      EXHF   =         0.00000000
  -V(xc)+E(xc)   XCENC  =      1826.83243928
  PAW double counting   =     35473.34673381   -39263.60899562
  entropy T*S    EENTRO =        -0.00000000
  eigenvalues    EBANDS =     -9902.64240463
  atomic energy  EATOM  =     48365.93245855
  ---------------------------------------------------
  free energy    TOTEN  =      -277.38444060 eV

  energy without entropy =     -277.38444060  energy(sigma->0) =     -277.38444060


--------------------------------------------------------------------------------------------------------




--------------------------------------- Iteration      1(  16)  ---------------------------------------


    POTLOK:  cpu time      0.3129: real time      0.3138
    SETDIJ:  cpu time      0.0849: real time      0.0851
    TRIAL :  cpu time      0.8878: real time      0.8915
    CORREC:  cpu time      0.7820: real time      0.7844
    CHARGE:  cpu time      0.1236: real time      0.1241
    --------------------------------------------
      LOOP:  cpu time      2.1927: real time      2.2028

 eigenvalue-minimisations  :     0
 total energy-change (2. order) :-0.7386689E-02  (-0.2881072E-02)
 number of electron     457.9999547 magnetization
 augmentation part      155.1505114 magnetization

 DIPCOR: dipole corrections for dipol
 direction  3 min pos     1,
 dipolmoment           0.000000      0.000000      0.101223 electrons x Angstroem
 Tr[quadrupol]     -6351.696273

 energy correction for charged system         0.000000 eV
 dipol+quadrupol energy correction           -0.000610 eV
 added-field ion interaction         -0.790042 eV  (added to PSCEN)


 Free energy of the ion-electron system (eV)
  ---------------------------------------------------
  alpha Z        PSCENC =       907.28169046
  Ewald energy   TEWEN  =    137680.68694039
  -Hartree energ DENC   =   -175373.63324681
  -exchange      EXHF   =         0.00000000
  -V(xc)+E(xc)   XCENC  =      1826.92769094
  PAW double counting   =     35478.02643350   -39267.47635592
  entropy T*S    EENTRO =        -0.00000000
  eigenvalues    EBANDS =     -9895.13743840
  atomic energy  EATOM  =     48365.93245855
  ---------------------------------------------------
  free energy    TOTEN  =      -277.39182729 eV

  energy without entropy =     -277.39182729  energy(sigma->0) =     -277.39182729


--------------------------------------------------------------------------------------------------------




--------------------------------------- Iteration      1(  17)  ---------------------------------------


    POTLOK:  cpu time      0.3147: real time      0.3157
    SETDIJ:  cpu time      0.0852: real time      0.0854
    TRIAL :  cpu time      0.8890: real time      0.8929
    CORREC:  cpu time      0.7856: real time      0.7883
    CHARGE:  cpu time      0.1212: real time      0.1217
    --------------------------------------------
      LOOP:  cpu time      2.1978: real time      2.2080

 eigenvalue-minimisations  :     0
 total energy-change (2. order) :-0.2877865E-02  (-0.1143911E-02)
 number of electron     457.9999547 magnetization
 augmentation part      155.1504416 magnetization

 DIPCOR: dipole corrections for dipol
 direction  3 min pos     1,
 dipolmoment           0.000000      0.000000      0.103670 electrons x Angstroem
 Tr[quadrupol]     -6351.705415

 energy correction for charged system         0.000000 eV
 dipol+quadrupol energy correction           -0.000640 eV
 added-field ion interaction         -0.809138 eV  (added to PSCEN)


 Free energy of the ion-electron system (eV)
  ---------------------------------------------------
  alpha Z        PSCENC =       907.27080619
  Ewald energy   TEWEN  =    137680.68694039
  -Hartree energ DENC   =   -175377.67478809
  -exchange      EXHF   =         0.00000000
  -V(xc)+E(xc)   XCENC  =      1826.96957134
  PAW double counting   =     35480.43997061   -39269.93002618
  entropy T*S    EENTRO =        -0.00000000
  eigenvalues    EBANDS =     -9891.08963797
  atomic energy  EATOM  =     48365.93245855
  ---------------------------------------------------
  free energy    TOTEN  =      -277.39470516 eV

  energy without entropy =     -277.39470516  energy(sigma->0) =     -277.39470516


--------------------------------------------------------------------------------------------------------




--------------------------------------- Iteration      1(  18)  ---------------------------------------


    POTLOK:  cpu time      0.3149: real time      0.3159
    SETDIJ:  cpu time      0.0848: real time      0.0850
    TRIAL :  cpu time      0.8887: real time      0.8932
    CORREC:  cpu time      0.7825: real time      0.7849
    CHARGE:  cpu time      0.1243: real time      0.1248
    --------------------------------------------
      LOOP:  cpu time      2.1968: real time      2.2077

 eigenvalue-minimisations  :     0
 total energy-change (2. order) :-0.1141995E-02  (-0.4818763E-03)
 number of electron     457.9999547 magnetization
 augmentation part      155.1517636 magnetization

 DIPCOR: dipole corrections for dipol
 direction  3 min pos     1,
 dipolmoment           0.000000      0.000000      0.105427 electrons x Angstroem
 Tr[quadrupol]     -6351.664958

 energy correction for charged system         0.000000 eV
 dipol+quadrupol energy correction           -0.000662 eV
 added-field ion interaction         -0.822857 eV  (added to PSCEN)


 Free energy of the ion-electron system (eV)
  ---------------------------------------------------
  alpha Z        PSCENC =       907.24898899
  Ewald energy   TEWEN  =    137680.68694039
  -Hartree energ DENC   =   -175377.58215848
  -exchange      EXHF   =         0.00000000
  -V(xc)+E(xc)   XCENC  =      1826.97995178
  PAW double counting   =     35482.30029557   -39271.97079874
  entropy T*S    EENTRO =        -0.00000000
  eigenvalues    EBANDS =     -9890.99152521
  atomic energy  EATOM  =     48365.93245855
  ---------------------------------------------------
  free energy    TOTEN  =      -277.39584715 eV

  energy without entropy =     -277.39584715  energy(sigma->0) =     -277.39584715


--------------------------------------------------------------------------------------------------------




--------------------------------------- Iteration      1(  19)  ---------------------------------------


    POTLOK:  cpu time      0.3161: real time      0.3171
    SETDIJ:  cpu time      0.0843: real time      0.0845
    TRIAL :  cpu time      0.8858: real time      0.8897
[...]
    252       5.0839      0.00000
    253       5.1260      0.00000
    254       5.1369      0.00000
    255       5.1369      0.00000
    256       5.2231      0.00000
    257       5.3929      0.00000
    258       5.3929      0.00000
    259       5.8465      0.00000
    260       5.9180      0.00000
    261       5.9237      0.00000
    262       5.9606      0.00000
    263       6.2386      0.00000
    264       6.3491      0.00000
    265       6.4180      0.00000
    266       6.4183      0.00000
    267       6.4314      0.00000
    268       6.6465      0.00000
    269       6.6832      0.00000
    270       6.7046      0.00000
    271       6.7279      0.00000
    272       6.9945      0.00000
    273       7.4361      0.00000
    274       7.4432      0.00000
    275       7.4623      0.00000
    276       7.7963      0.00000
    277       7.8337      0.00000
    278       7.8493      0.00000
    279       7.8543      0.00000
    280       7.8649      0.00000
    281       7.8791      0.00000
    282       7.8866      0.00000
    283       7.9037      0.00000
    284       7.9371      0.00000
    285       7.9444      0.00000
    286       7.9685      0.00000
    287       8.0535      0.00000
    288       8.3883      0.00000
    289       8.5269      0.00000
    290       8.6050      0.00000
    291       8.6899      0.00000
    292       8.7185      0.00000
    293       8.7378      0.00000
    294       8.7725      0.00000
    295       8.7945      0.00000
    296       8.8263      0.00000
    297       8.9262      0.00000
    298       8.9775      0.00000
    299       8.9958      0.00000
    300       9.2780      0.00000
    301       9.3363      0.00000
    302       9.3703      0.00000
    303       9.4025      0.00000
    304       9.5206      0.00000


--------------------------------------------------------------------------------------------------------


 soft charge-density along one line, spin component           1
         0         1         2         3         4         5         6         7         8         9
 total charge-density along one line

 pseudopotential strength for first ion, spin component:           1
 10.248  13.627   0.000   0.025  -0.000  -0.000  -0.076   0.000
 13.627  18.121   0.000   0.033  -0.000  -0.000  -0.100   0.000
  0.000   0.000  -4.420   0.000   0.000   8.676  -0.000  -0.000
  0.025   0.033   0.000  -4.426   0.000  -0.000   8.664  -0.000
 -0.000  -0.000   0.000   0.000  -4.420  -0.000  -0.000   8.676
 -0.000  -0.000   8.676  -0.000  -0.000 -19.170   0.000  -0.000
 -0.076  -0.100  -0.000   8.664  -0.000   0.000 -19.095   0.000
  0.000   0.000  -0.000  -0.000   8.676  -0.000   0.000 -19.170
 total augmentation occupancy for first ion, spin component:           1
  7.203  -3.274   0.000   2.078   0.000   0.000   0.374  -0.000
 -3.274   1.888   0.000  -1.581   0.000   0.000  -0.225   0.000
  0.000   0.000   0.837   0.000   0.000   0.058   0.000   0.000
  2.078  -1.581   0.000   2.236   0.000   0.000   0.206  -0.000
  0.000   0.000   0.000   0.000   0.837   0.000   0.000   0.058
  0.000   0.000   0.058   0.000   0.000   0.004   0.000   0.000
  0.374  -0.225   0.000   0.206   0.000   0.000   0.028   0.000
 -0.000   0.000   0.000  -0.000   0.058   0.000   0.000   0.004


------------------------ aborting loop because EDIFF is reached ----------------------------------------


    FORLOC:  cpu time      0.0031: real time      0.0031
    FORNL :  cpu time      0.3021: real time      0.3036
    STRESS:  cpu time      2.2113: real time      2.2197
    FORCOR:  cpu time      0.3086: real time      0.3096
    OFIELD:  cpu time      0.0001: real time      0.0001

  FORCE on cell =-STRESS in cart. coord.  units (eV):
  Direction    XX          YY          ZZ          XY          YZ          ZX
  --------------------------------------------------------------------------------------
  Alpha Z   908.06353   908.06353   908.06353
  Ewald  158173.94950158173.94950************     0.00000     0.00000    -0.00000
  Hartree168557.53431168557.53431************    -0.00000    -0.00000    -0.00000
  E(xc)   -2500.25332 -2500.25332 -2499.23146    -0.00000     0.00000     0.00000
  Local  ************************336312.89340     0.00000     0.00000     0.00000
  n-local -2850.92643 -2851.73854 -2880.60542     0.00000    -0.00000     0.00000
  augment  1057.95985  1057.95985  1048.11771     0.00000     0.00000     0.00000
  Kinetic  7496.18224  7498.74129  7516.95645     0.00001     0.00001     0.00001
  Fock        0.00000     0.00000     0.00000     0.00000     0.00000     0.00000
  -------------------------------------------------------------------------------------
  Total     -29.43825   -29.43825    -2.23959     0.00000     0.00000     0.00000
  in kB     -31.03687   -31.03687    -2.36121     0.00000     0.00000     0.00000
  external pressure =      -21.48 kB  Pullay stress =        0.00 kB


 VOLUME and BASIS-vectors are now :
 -----------------------------------------------------------------------------
  energy-cutoff  :      600.00
  volume of cell :     1519.65
      direct lattice vectors                 reciprocal lattice vectors
     8.440582262  0.000000000  0.000000000     0.118475239  0.000000000  0.000000000
     0.000000000  8.440582262  0.000000000     0.000000000  0.118475239  0.000000000
     0.000000000  0.000000000 21.330436697     0.000000000  0.000000000  0.046881366

  length of vectors
     8.440582262  8.440582262 21.330436697     0.118475239  0.118475239  0.046881366


 FORCES acting on ions:
    Electron-Ion                     Ewald-Force                    Non-Local-Force
 -----------------------------------------------------------------------------------------------
   0.902E-13 -.330E-12 -.842E+03   -.163E-13 0.437E-15 0.816E+03   -.623E-23 -.196E-23 0.270E+02
   0.372E-12 0.269E-13 -.146E+04   -.133E-14 -.644E-14 0.152E+04   -.126E-22 0.133E-22 -.607E+02
   0.922E-01 0.431E-12 0.208E+04   -.909E-01 0.454E-13 -.207E+04   -.882E-03 0.211E-22 -.679E+01
   0.657E-12 0.858E-01 0.208E+04   0.120E-12 -.820E-01 -.207E+04   -.345E-22 -.293E-02 -.680E+01
   0.310E+00 0.310E+00 0.717E+03   -.294E+00 -.294E+00 -.717E+03   -.112E-01 -.112E-01 0.437E+00
   0.570E-12 0.744E-12 0.717E+03   -.125E-13 0.277E-14 -.717E+03   -.559E-23 -.161E-23 0.375E+00
   0.267E+01 0.370E-12 -.641E+03   -.265E+01 0.135E-10 0.641E+03   -.272E-01 -.533E-22 -.182E+00
   0.568E-12 0.382E+01 -.636E+03   -.743E-13 -.370E+01 0.636E+03   0.228E-22 -.118E+00 -.291E+00
   0.178E+02 0.178E+02 -.199E+04   -.179E+02 -.179E+02 0.198E+04   0.109E+00 0.109E+00 0.602E+01
   0.688E-12 0.357E-12 -.200E+04   -.110E-11 0.164E-10 0.199E+04   -.115E-22 0.531E-23 0.595E+01
   0.858E-01 0.929E-12 0.208E+04   -.820E-01 0.422E-13 -.207E+04   -.293E-02 0.592E-23 -.680E+01
   0.641E-12 -.858E-01 0.208E+04   -.149E-11 0.820E-01 -.207E+04   -.267E-23 0.293E-02 -.680E+01
   0.310E+00 -.310E+00 0.717E+03   -.294E+00 0.294E+00 -.717E+03   -.112E-01 0.112E-01 0.437E+00
   0.594E-12 -.137E-11 0.717E+03   0.152E-11 -.249E-13 -.717E+03   0.616E-23 -.400E-23 0.518E+00
   0.382E+01 0.197E-11 -.636E+03   -.370E+01 -.784E-13 0.636E+03   -.118E+00 0.384E-22 -.291E+00
   0.589E-12 -.382E+01 -.636E+03   -.275E-13 0.370E+01 0.636E+03   0.111E-22 0.118E+00 -.291E+00
   0.178E+02 -.178E+02 -.199E+04   -.179E+02 0.179E+02 0.198E+04   0.109E+00 -.109E+00 0.602E+01
   0.663E-12 -.135E-13 -.192E+04   -.149E-11 -.747E-13 0.192E+04   0.454E-22 0.173E-22 0.386E+01
   -.922E-01 0.458E-12 0.208E+04   0.909E-01 0.295E-13 -.207E+04   0.882E-03 0.278E-22 -.679E+01
   -.540E-13 0.922E-01 0.208E+04   0.152E-11 -.909E-01 -.207E+04   0.200E-22 -.882E-03 -.679E+01
   -.310E+00 0.310E+00 0.717E+03   0.294E+00 -.294E+00 -.717E+03   0.112E-01 -.112E-01 0.437E+00
   -.411E-13 -.402E-12 0.716E+03   -.150E-10 0.289E-14 -.716E+03   -.114E-23 -.229E-22 0.405E+00
   -.267E+01 0.276E-12 -.641E+03   0.265E+01 0.135E-10 0.641E+03   0.272E-01 0.104E-21 -.182E+00
   -.232E-13 0.267E+01 -.641E+03   0.166E-10 -.265E+01 0.641E+03   -.858E-22 -.272E-01 -.182E+00
   -.178E+02 0.178E+02 -.199E+04   0.179E+02 -.179E+02 0.198E+04   -.109E+00 0.109E+00 0.602E+01
   -.301E-13 -.566E-12 -.201E+04   0.274E-11 0.106E-11 0.200E+04   -.362E-22 0.237E-22 0.596E+01
   -.858E-01 -.229E-12 0.208E+04   0.820E-01 -.146E-11 -.207E+04   0.293E-02 0.110E-22 -.680E+01
   -.617E-13 -.922E-01 0.208E+04   0.785E-14 0.909E-01 -.207E+04   0.939E-23 0.882E-03 -.679E+01
   -.310E+00 -.310E+00 0.717E+03   0.294E+00 0.294E+00 -.717E+03   0.112E-01 0.112E-01 0.437E+00
   -.417E-13 0.673E-13 0.717E+03   0.218E-13 0.150E-10 -.717E+03   0.149E-22 0.397E-22 0.375E+00
   -.382E+01 0.526E-11 -.636E+03   0.370E+01 0.162E-15 0.636E+03   0.118E+00 -.401E-22 -.291E+00
   -.166E-13 -.267E+01 -.641E+03   0.153E-10 0.265E+01 0.641E+03   -.566E-22 0.272E-01 -.182E+00
   -.178E+02 -.178E+02 -.199E+04   0.179E+02 0.179E+02 0.198E+04   -.109E+00 -.109E+00 0.602E+01
   0.839E-14 -.687E-12 -.200E+04   0.960E-13 -.193E-15 0.199E+04   -.473E-22 0.762E-23 0.595E+01
   0.303E+00 -.434E-12 0.537E+03   -.296E+00 0.296E-13 -.537E+03   -.929E-02 0.313E-22 -.529E-01
   0.255E-12 0.275E+00 0.537E+03   -.405E-13 -.302E+00 -.537E+03   -.121E-22 0.354E-01 -.101E+00
   0.659E-01 0.659E-01 0.156E+04   -.633E-01 -.633E-01 -.157E+04   -.355E-02 -.355E-02 0.360E+01
   0.307E-12 0.112E-11 0.156E+04   -.275E-13 0.159E-13 -.157E+04   0.796E-23 -.331E-22 0.360E+01
   0.718E+01 -.364E-12 -.152E+04   -.711E+01 -.120E-13 0.153E+04   -.785E-01 0.427E-23 -.495E+01
   0.332E-12 0.237E+02 -.149E+04   0.350E-13 -.233E+02 0.150E+04   -.138E-22 -.350E+00 -.493E+01
   0.238E+01 0.238E+01 -.473E+03   -.237E+01 -.237E+01 0.472E+03   -.133E-01 -.133E-01 0.358E+00
   0.259E-12 0.407E-12 -.473E+03   0.132E-13 0.139E-13 0.473E+03   -.263E-22 -.123E-22 0.289E+00
   0.275E+00 -.421E-12 0.537E+03   -.302E+00 0.843E-11 -.537E+03   0.354E-01 0.157E-22 -.101E+00
   0.248E-12 -.275E+00 0.537E+03   0.707E-12 0.302E+00 -.537E+03   0.376E-22 -.354E-01 -.101E+00
   0.659E-01 -.659E-01 0.156E+04   -.633E-01 0.633E-01 -.157E+04   -.355E-02 0.355E-02 0.360E+01
   0.277E-12 0.754E-12 0.156E+04   -.875E-12 -.837E-12 -.157E+04   0.191E-23 -.659E-23 0.360E+01
   0.237E+02 0.104E-11 -.149E+04   -.233E+02 0.605E-13 0.150E+04   -.350E+00 -.276E-22 -.493E+01
   0.322E-12 -.237E+02 -.149E+04   -.133E-13 0.233E+02 0.150E+04   0.435E-22 0.350E+00 -.493E+01
   0.238E+01 -.238E+01 -.473E+03   -.237E+01 0.237E+01 0.472E+03   -.133E-01 0.133E-01 0.358E+00
   0.217E-12 0.150E-11 -.475E+03   0.131E-12 -.142E-13 0.475E+03   -.215E-23 -.229E-23 -.313E+00
   -.303E+00 -.468E-12 0.537E+03   0.296E+00 -.769E-14 -.537E+03   0.929E-02 0.228E-22 -.529E-01
   -.127E-13 0.303E+00 0.537E+03   -.932E-11 -.296E+00 -.537E+03   0.250E-22 -.929E-02 -.529E-01
   -.659E-01 0.659E-01 0.156E+04   0.633E-01 -.633E-01 -.157E+04   0.355E-02 -.355E-02 0.360E+01
   -.271E-13 0.673E-13 0.156E+04   0.163E-11 -.534E-14 -.157E+04   -.281E-24 -.151E-22 0.361E+01
   -.718E+01 -.404E-12 -.152E+04   0.711E+01 -.361E-13 0.153E+04   0.785E-01 -.821E-23 -.495E+01
   0.146E-13 0.718E+01 -.152E+04   -.897E-11 -.711E+01 0.153E+04   0.465E-22 -.785E-01 -.495E+01
   -.238E+01 0.238E+01 -.473E+03   0.237E+01 -.237E+01 0.472E+03   0.133E-01 -.133E-01 0.358E+00
   -.223E-13 -.109E-12 -.478E+03   0.217E-13 0.159E-10 0.478E+03   0.117E-22 -.320E-22 0.260E+00
   -.275E+00 0.653E-11 0.537E+03   0.302E+00 0.842E-11 -.537E+03   -.354E-01 -.360E-22 -.101E+00
   -.162E-13 -.303E+00 0.537E+03   -.850E-11 0.296E+00 -.537E+03   -.458E-22 0.929E-02 -.529E-01
   -.659E-01 -.659E-01 0.156E+04   0.633E-01 0.633E-01 -.157E+04   0.355E-02 0.355E-02 0.360E+01
   -.207E-13 0.458E-12 0.156E+04   0.847E-12 -.849E-12 -.157E+04   0.272E-22 -.178E-22 0.360E+01
   -.237E+02 0.117E-11 -.149E+04   0.233E+02 0.641E-13 0.150E+04   0.350E+00 -.296E-22 -.493E+01
   0.283E-13 -.718E+01 -.152E+04   -.824E-11 0.711E+01 0.153E+04   -.921E-23 0.785E-01 -.495E+01
   -.238E+01 -.238E+01 -.473E+03   0.237E+01 0.237E+01 0.472E+03   0.133E-01 0.133E-01 0.358E+00
   -.181E-13 -.488E-12 -.473E+03   -.855E-13 0.212E-13 0.473E+03   0.118E-22 -.978E-23 0.289E+00
 -----------------------------------------------------------------------------------------------
   0.267E-10 -.413E-11 0.501E+02   -.284E-12 -.108E-13 -.455E-11   -.867E-17 -.520E-16 -.502E+02


 POSITION                                       TOTAL-FORCE (eV/Angst)
 -----------------------------------------------------------------------------------
      4.22029      4.22029     16.28570        -0.000000     -0.000000      0.006562
      4.22029      4.22029     17.42750        -0.000000     -0.000000     -0.006926
      2.11015      0.00000      7.50000         0.000380     -0.000000      0.317410
      4.22029      2.11015      7.50000        -0.000000      0.000878      0.319143
      2.11015      2.11015      9.61015         0.004994      0.004994      0.022020
      4.22029      0.00000      9.61015        -0.000000     -0.000000      0.031303
      2.11096      0.00000     11.72756         0.000525     -0.000000      0.003214
      4.22029      2.11418     11.73254        -0.000000      0.000214      0.004208
      2.10768      2.10768     13.82102         0.000337      0.000337      0.004680
      4.22029      0.00000     13.82337        -0.000000     -0.000000      0.004108
      2.11015      4.22029      7.50000         0.000878     -0.000000      0.319143
      4.22029      6.33044      7.50000        -0.000000     -0.000878      0.319143
      2.11015      6.33044      9.61015         0.004994     -0.004994      0.022020
      4.22029      4.22029      9.61015        -0.000000     -0.000000      0.041933
      2.11418      4.22029     11.73254         0.000214     -0.000000      0.004208
      4.22029      6.32640     11.73254        -0.000000     -0.000214      0.004208
      2.10768      6.33290     13.82102         0.000337     -0.000337      0.004680
      4.22029      4.22029     13.87855        -0.000000     -0.000000      0.000605
      6.33044      0.00000      7.50000        -0.000380     -0.000000      0.317410
      0.00000      2.11015      7.50000        -0.000000      0.000380      0.317410
      6.33044      2.11015      9.61015        -0.004994      0.004994      0.022020
      0.00000      0.00000      9.61015        -0.000000     -0.000000      0.018175
      6.32963      0.00000     11.72756        -0.000525     -0.000000      0.003214
      0.00000      2.11096     11.72756        -0.000000      0.000525      0.003214
      6.33290      2.10768     13.82102        -0.000337      0.000337      0.004680
      0.00000      0.00000     13.82469        -0.000000     -0.000000      0.005145
      6.33044      4.22029      7.50000        -0.000878     -0.000000      0.319143
      0.00000      6.33044      7.50000        -0.000000     -0.000380      0.317410
      6.33044      6.33044      9.61015        -0.004994     -0.004994      0.022020
      0.00000      4.22029      9.61015        -0.000000     -0.000000      0.031303
      6.32640      4.22029     11.73254        -0.000214     -0.000000      0.004208
      0.00000      6.32963     11.72756        -0.000000     -0.000525      0.003214
      6.33290      6.33290     13.82102        -0.000337     -0.000337      0.004680
      0.00000      4.22029     13.82337        -0.000000     -0.000000      0.004108
      2.11015      0.00000      9.61015        -0.002691     -0.000000      0.043302
      4.22029      2.11015      9.61015        -0.000000      0.008810      0.053910
      2.11015      2.11015      7.50000        -0.001001     -0.001001     -0.402844
      4.22029      0.00000      7.50000        -0.000000     -0.000000     -0.402963
      2.10787      0.00000     13.86596        -0.000061     -0.000000      0.000567
      4.22029      2.09923     13.86756        -0.000000     -0.000944      0.000221
      2.11000      2.11000     11.72373        -0.000053     -0.000053      0.001372
      4.22029      0.00000     11.72209        -0.000000     -0.000000      0.001763
      2.11015      4.22029      9.61015         0.008810     -0.000000      0.053910
      4.22029      6.33044      9.61015        -0.000000     -0.008810      0.053910
      2.11015      6.33044      7.50000        -0.001001      0.001001     -0.402844
      4.22029      4.22029      7.50000        -0.000000     -0.000000     -0.404397
      2.09923      4.22029     13.86756        -0.000944     -0.000000      0.000221
      4.22029      6.34135     13.86756        -0.000000      0.000944      0.000221
      2.11000      6.33058     11.72373        -0.000053      0.000053      0.001372
      4.22029      4.22029     11.73377        -0.000000     -0.000000      0.001010
      6.33044      0.00000      9.61015         0.002691     -0.000000      0.043302
      0.00000      2.11015      9.61015        -0.000000     -0.002691      0.043302
      6.33044      2.11015      7.50000         0.001001     -0.001001     -0.402844
      0.00000      0.00000      7.50000        -0.000000     -0.000000     -0.402201
      6.33271      0.00000     13.86596         0.000061     -0.000000      0.000567
      0.00000      2.10787     13.86596        -0.000000     -0.000061      0.000567
      6.33058      2.11000     11.72373         0.000053     -0.000053      0.001372
      0.00000      0.00000     11.72232        -0.000000     -0.000000      0.002851
      6.33044      4.22029      9.61015        -0.008810     -0.000000      0.053910
      0.00000      6.33044      9.61015        -0.000000      0.002691      0.043302
      6.33044      6.33044      7.50000         0.001001      0.001001     -0.402844
      0.00000      4.22029      7.50000        -0.000000     -0.000000     -0.402963
      6.34135      4.22029     13.86756         0.000944     -0.000000      0.000221
      0.00000      6.33271     13.86596        -0.000000      0.000061      0.000567
      6.33058      6.33058     11.72373         0.000053      0.000053      0.001372
      0.00000      4.22029     11.72209        -0.000000     -0.000000      0.001763
 -----------------------------------------------------------------------------------
    total drift:                                0.000000     -0.000000     -0.009880


--------------------------------------------------------------------------------------------------------



  FREE ENERGIE OF THE ION-ELECTRON SYSTEM (eV)
  ---------------------------------------------------
  free  energy   TOTEN  =      -277.39664110 eV

  energy  without entropy=     -277.39664110  energy(sigma->0) =     -277.39664110



--------------------------------------------------------------------------------------------------------


    POTLOK:  cpu time      0.3903: real time      0.3915


--------------------------------------------------------------------------------------------------------


     LOOP+:  cpu time     67.2730: real time     67.6000
    4ORBIT:  cpu time      0.0000: real time      0.0000

 total amount of memory used by VASP MPI-rank0   132524. kBytes
=======================================================================

   base      :      30000. kBytes
   nonl-proj :      58834. kBytes
   fftplans  :      14615. kBytes
   grid      :      21323. kBytes
   one-center:        267. kBytes
   wavefun   :       7485. kBytes



 General timing and accounting informations for this job:
 ========================================================

                  Total CPU time used (sec):       70.418
                            User time (sec):       69.505
                          System time (sec):        0.913
                         Elapsed time (sec):       71.491

                   Maximum memory used (kb):      507224.
                   Average memory used (kb):          N/A

                          Minor page faults:       119938
                          Major page faults:          127
                 Voluntary context switches:         1954
