 vasp.6.3.0 20Jan22 (build Apr  1 2022 16:44:48) complex
 executed on        HPECrayEX_GCC date 2023.01.23  21:53:40
 running  512 mpi-ranks, with    1 threads/rank
 distrk:  each k-point on  512 cores,    1 groups
 distr:  one band on NCORE=   8 cores,   64 groups


--------------------------------------------------------------------------------------------------------


 INCAR:
   SYSTEM = MgO-rocksalt
   ISMEAR = 0
   SIGMA = 0.05
   EDIFF = 1E-8
   ALGO = ALL
   ISTART = 0
   IBRION = 5
   POTIM = 0.01
   NFREE = 2
   ISYM = 0
   DIPOL = 0.5 0.5 0.5
   IDIPOL = 3
   LDIPOL = .TRUE.
   GGA = RE
   AGGAC = 0.0
   LUSE_VDW = .TRUE.
   LASPH = .TRUE.
   ENCUT = 600
   PREC = Accurate
   LASPH = .TRUE.
   LREAL = .FALSE.
   ISPIN = 1
   NELM = 200
   NELMIN = 8
   NCORE = 8
   KPAR = 1
   LWAVE = .FALSE.
   LCHARG = .FALSE.

 POTCAR:    PAW_PBE C 08Apr2002
 POTCAR:    PAW_PBE O 08Apr2002
 POTCAR:    PAW_PBE Mg_pv 13Apr2007
 POTCAR:    PAW_PBE O 08Apr2002
 -----------------------------------------------------------------------------
|                                                                             |
|               ----> ADVICE to this user running VASP <----                  |
|                                                                             |
|     You have switched on vdW-DFT.                                           |
|     This routine was written and supplied by Jiri Klimes. We recommend      |
|     that you carefully read and cite the following publications:            |
|       J. Klimes, D.R. Bowler, A. Michelides                                 |
|          J. Phys.: Cond Matt. 22 022201 (2010)                              |
|       J. Klimes, D.R. Bowler, A. Michelides                                 |
|          Phys. Rev. B. 83, 195131 (2011)                                    |
|     and references therein.                                                 |
|                                                                             |
 -----------------------------------------------------------------------------

 POTCAR:    PAW_PBE C 08Apr2002
   SHA256 =  253f7b50bb8d59471dbedb8285d89021f4a42ed1a2c5d38a03a736e69125dd95 C/POTCAR
   COPYR  = (c) Copyright 08Apr2002 Georg Kresse
   COPYR  = This file is part of the software VASP. Any use, copying, and all other rights are regul
   COPYR  = If you do not have a valid VASP license, you may not use, copy or distribute this file.
   VRHFIN =C: s2p2
   LEXCH  = PE
   EATOM  =   147.1560 eV,   10.8157 Ry

   TITEL  = PAW_PBE C 08Apr2002
   LULTRA =        F    use ultrasoft PP ?
   IUNSCR =        1    unscreen: 0-lin 1-nonlin 2-no
   RPACOR =    1.200    partial core radius
   POMASS =   12.011; ZVAL   =    4.000    mass and valenz
   RCORE  =    1.500    outmost cutoff radius
   RWIGS  =    1.630; RWIGS  =    0.863    wigner-seitz radius (au A)
   ENMAX  =  400.000; ENMIN  =  300.000 eV
   ICORE  =        2    local potential
   LCOR   =        T    correct aug charges
   LPAW   =        T    paw PP
   EAUG   =  644.873
   DEXC   =    0.000
   RMAX   =    1.529    core radius for proj-oper
   RAUG   =    1.300    factor for augmentation sphere
   RDEP   =    1.501    radius for radial grids
   RDEPT  =    1.300    core radius for aug-charge

   Atomic configuration
    4 entries
     n  l   j            E        occ.
     1  0  0.50      -273.3789   2.0000
     2  0  0.50       -13.7508   2.0000
     2  1  0.50        -5.2854   2.0000
     3  2  1.50        -5.4423   0.0000
   Description
     l       E           TYP  RCUT    TYP  RCUT
     0    -13.7508458     23  1.200
     0     -8.2022199     23  1.200
     1     -5.2854383     23  1.500
     1     34.0145650     23  1.500
     2     -5.4423304      7  1.500
  local pseudopotential read in
  partial core-charges read in
  partial kinetic energy density read in
  atomic valenz-charges read in
  non local Contribution for L=           0  read in
    real space projection operators read in
  non local Contribution for L=           0  read in
    real space projection operators read in
  non local Contribution for L=           1  read in
    real space projection operators read in
  non local Contribution for L=           1  read in
    real space projection operators read in
    PAW grid and wavefunctions read in

   number of l-projection  operators is LMAX  =           4
   number of lm-projection operators is LMMAX =           8

 POTCAR:    PAW_PBE O 08Apr2002
   SHA256 =  818f92134a0a090dccd8ba1447fa70422a3b330e708bb4f08108d8ae51209ddf O/POTCAR
   COPYR  = (c) Copyright 08Apr2002 Georg Kresse
   COPYR  = This file is part of the software VASP. Any use, copying, and all other rights are regul
   COPYR  = If you do not have a valid VASP license, you may not use, copy or distribute this file.
   VRHFIN =O: s2p4
   LEXCH  = PE
   EATOM  =   432.3788 eV,   31.7789 Ry

   TITEL  = PAW_PBE O 08Apr2002
   LULTRA =        F    use ultrasoft PP ?
   IUNSCR =        1    unscreen: 0-lin 1-nonlin 2-no
   RPACOR =    1.200    partial core radius
   POMASS =   16.000; ZVAL   =    6.000    mass and valenz
   RCORE  =    1.520    outmost cutoff radius
   RWIGS  =    1.550; RWIGS  =    0.820    wigner-seitz radius (au A)
   ENMAX  =  400.000; ENMIN  =  300.000 eV
   ICORE  =        2    local potential
   LCOR   =        T    correct aug charges
   LPAW   =        T    paw PP
   EAUG   =  605.392
   DEXC   =    0.000
   RMAX   =    1.553    core radius for proj-oper
   RAUG   =    1.300    factor for augmentation sphere
   RDEP   =    1.550    radius for radial grids
   RDEPT  =    1.329    core radius for aug-charge

   Atomic configuration
    4 entries
     n  l   j            E        occ.
     1  0  0.50      -514.6923   2.0000
     2  0  0.50       -23.9615   2.0000
     2  1  0.50        -9.0305   4.0000
     3  2  1.50        -9.5241   0.0000
   Description
     l       E           TYP  RCUT    TYP  RCUT
     0    -23.9615318     23  1.200
     0     -9.5240782     23  1.200
     1     -9.0304911     23  1.520
     1      8.1634956     23  1.520
     2     -9.5240782      7  1.500
  local pseudopotential read in
  partial core-charges read in
  partial kinetic energy density read in
  kinetic energy density of atom read in
  atomic valenz-charges read in
  non local Contribution for L=           0  read in
    real space projection operators read in
  non local Contribution for L=           0  read in
    real space projection operators read in
  non local Contribution for L=           1  read in
    real space projection operators read in
  non local Contribution for L=           1  read in
    real space projection operators read in
    PAW grid and wavefunctions read in

   number of l-projection  operators is LMAX  =           4
   number of lm-projection operators is LMMAX =           8

 POTCAR:    PAW_PBE Mg_pv 13Apr2007
   SHA256 =  f474ac0dd33840b9ae76c01d57fea79fdf77cdfbb07d5ade72c65f83c709b62b Mg_pv/POTCAR
   COPYR  = (c) Copyright 13Apr2007 Georg Kresse
   COPYR  = This file is part of the software VASP. Any use, copying, and all other rights are regul
   COPYR  = If you do not have a valid VASP license, you may not use, copy or distribute this file.
   VRHFIN =Mg: p6s2
   LEXCH  = PE
   EATOM  =  1056.7344 eV,   77.6678 Ry

   TITEL  = PAW_PBE Mg_pv 13Apr2007
   LULTRA =        F    use ultrasoft PP ?
   IUNSCR =        1    unscreen: 0-lin 1-nonlin 2-no
   RPACOR =    1.500    partial core radius
   POMASS =   24.305; ZVAL   =    8.000    mass and valenz
   RCORE  =    2.000    outmost cutoff radius
   RWIGS  =    2.000; RWIGS  =    1.058    wigner-seitz radius (au A)
   ENMAX  =  403.929; ENMIN  =  302.947 eV
   RCLOC  =    1.506    cutoff for local pot
   LCOR   =        T    correct aug charges
   LPAW   =        T    paw PP
   EAUG   =  758.780
   DEXC   =    0.000
   RMAX   =    2.045    core radius for proj-oper
   RAUG   =    1.300    factor for augmentation sphere
   RDEP   =    2.025    radius for radial grids
   RDEPT  =    1.557    core radius for aug-charge

   Atomic configuration
    5 entries
     n  l   j            E        occ.
     1  0  0.50     -1259.6230   2.0000
     2  0  0.50       -79.8442   2.0000
     2  1  1.50       -46.6121   6.0000
     3  0  0.50        -4.7055   2.0000
     3  2  1.50        -1.3606   0.0000
   Description
     l       E           TYP  RCUT    TYP  RCUT
     1    -46.6121073     23  1.600
     1      2.7211652     23  1.600
     0     -4.7054661     23  2.000
     0     61.2262170     23  2.000
     2     -1.3605826     23  2.000
  local pseudopotential read in
  partial core-charges read in
  partial kinetic energy density read in
  atomic valenz-charges read in
  non local Contribution for L=           1  read in
    real space projection operators read in
  non local Contribution for L=           1  read in
    real space projection operators read in
  non local Contribution for L=           0  read in
    real space projection operators read in
  non local Contribution for L=           0  read in
    real space projection operators read in
  non local Contribution for L=           2  read in
    real space projection operators read in
    PAW grid and wavefunctions read in

   number of l-projection  operators is LMAX  =           5
   number of lm-projection operators is LMMAX =          13

 POTCAR:    PAW_PBE O 08Apr2002
   SHA256 =  818f92134a0a090dccd8ba1447fa70422a3b330e708bb4f08108d8ae51209ddf O/POTCAR
   COPYR  = (c) Copyright 08Apr2002 Georg Kresse
   COPYR  = This file is part of the software VASP. Any use, copying, and all other rights are regul
   COPYR  = If you do not have a valid VASP license, you may not use, copy or distribute this file.
   VRHFIN =O: s2p4
   LEXCH  = PE
   EATOM  =   432.3788 eV,   31.7789 Ry

   TITEL  = PAW_PBE O 08Apr2002
   LULTRA =        F    use ultrasoft PP ?
   IUNSCR =        1    unscreen: 0-lin 1-nonlin 2-no
   RPACOR =    1.200    partial core radius
   POMASS =   16.000; ZVAL   =    6.000    mass and valenz
   RCORE  =    1.520    outmost cutoff radius
   RWIGS  =    1.550; RWIGS  =    0.820    wigner-seitz radius (au A)
   ENMAX  =  400.000; ENMIN  =  300.000 eV
   ICORE  =        2    local potential
   LCOR   =        T    correct aug charges
   LPAW   =        T    paw PP
   EAUG   =  605.392
   DEXC   =    0.000
   RMAX   =    1.553    core radius for proj-oper
   RAUG   =    1.300    factor for augmentation sphere
   RDEP   =    1.550    radius for radial grids
   RDEPT  =    1.329    core radius for aug-charge

   Atomic configuration
    4 entries
     n  l   j            E        occ.
     1  0  0.50      -514.6923   2.0000
     2  0  0.50       -23.9615   2.0000
     2  1  0.50        -9.0305   4.0000
     3  2  1.50        -9.5241   0.0000
   Description
     l       E           TYP  RCUT    TYP  RCUT
     0    -23.9615318     23  1.200
     0     -9.5240782     23  1.200
     1     -9.0304911     23  1.520
     1      8.1634956     23  1.520
     2     -9.5240782      7  1.500
  local pseudopotential read in
  partial core-charges read in
  partial kinetic energy density read in
  kinetic energy density of atom read in
  atomic valenz-charges read in
  non local Contribution for L=           0  read in
    real space projection operators read in
  non local Contribution for L=           0  read in
    real space projection operators read in
  non local Contribution for L=           1  read in
    real space projection operators read in
  non local Contribution for L=           1  read in
    real space projection operators read in
    PAW grid and wavefunctions read in

   number of l-projection  operators is LMAX  =           4
   number of lm-projection operators is LMMAX =           8

 -----------------------------------------------------------------------------
|                                                                             |
|               ----> ADVICE to this user running VASP <----                  |
|                                                                             |
|     You have a (more or less) 'large supercell' and for larger cells it     |
|     might be more efficient to use real-space projection operators.         |
|     Therefore, try LREAL= Auto in the INCAR file.                           |
|     Mind: For very accurate calculation, you might also keep the            |
|     reciprocal projection scheme (i.e. LREAL=.FALSE.).                      |
|                                                                             |
 -----------------------------------------------------------------------------

 -----------------------------------------------------------------------------
|                                                                             |
|               ----> ADVICE to this user running VASP <----                  |
|                                                                             |
|     You enforced a specific xc type in the INCAR file but a different       |
|     type was found in the POTCAR file.                                      |
|     I HOPE YOU KNOW WHAT YOU ARE DOING!                                     |
|                                                                             |
 -----------------------------------------------------------------------------

  PAW_PBE C 08Apr2002                   :
 energy of atom  1       EATOM= -147.1560
 kinetic energy error for atom=    0.0057 (will be added to EATOM!!)
  PAW_PBE O 08Apr2002                   :
 energy of atom  2       EATOM= -432.3788
 kinetic energy error for atom=    0.0168 (will be added to EATOM!!)
  PAW_PBE Mg_pv 13Apr2007               :
 energy of atom  3       EATOM=-1056.7344
 kinetic energy error for atom=    0.0221 (will be added to EATOM!!)
  PAW_PBE O 08Apr2002                   :
 energy of atom  4       EATOM= -432.3788
 kinetic energy error for atom=    0.0168 (will be added to EATOM!!)


 POSCAR:  C  O Mg  O
  positions in direct lattice
  No initial velocities read in
 exchange correlation table for  LEXCH =       40
   RHO(1)=    0.500       N(1)  =     2000
   RHO(2)=  100.500       N(2)  =     4000



--------------------------------------------------------------------------------------------------------


 ion  position               nearest neighbor table
   1  0.500  0.500  0.769-   2 1.14
   2  0.500  0.500  0.822-   1 1.14
   3  0.000  0.750  0.350-  35 2.14  37 2.14  38 2.14  45 2.14  54 2.14
   4  0.250  0.000  0.350-  36 2.14  37 2.14  38 2.14  46 2.14  53 2.14
   5  0.000  0.000  0.450-  37 2.14  36 2.14  35 2.14  43 2.14  52 2.14  41 2.14
   6  0.250  0.750  0.450-  38 2.14  36 2.14  35 2.14  44 2.14  51 2.14  42 2.14
   7  0.000  0.750  0.550-  49 2.14  42 2.14  58 2.14  41 2.14  35 2.14  39 2.17
   8  0.250  0.000  0.550-  57 2.14  50 2.14  42 2.14  41 2.14  36 2.14  40 2.17
   9  0.000  0.000  0.650-  41 2.13  40 2.13  39 2.13  47 2.13  56 2.13
  10  0.250  0.750  0.649-  42 2.12  40 2.13  39 2.13  48 2.14  55 2.14
  11  0.000  0.250  0.350-  43 2.14  37 2.14  45 2.14  46 2.14  62 2.14
  12  0.250  0.500  0.350-  44 2.14  38 2.14  45 2.14  46 2.14  61 2.14
  13  0.000  0.500  0.450-  45 2.14  43 2.14  44 2.14  35 2.14  60 2.14  49 2.14
  14  0.250  0.250  0.450-  46 2.14  43 2.14  44 2.14  36 2.14  59 2.14  50 2.14
  15  0.000  0.250  0.550-  49 2.14  50 2.14  66 2.14  41 2.14  43 2.14  47 2.17
  16  0.251  0.500  0.551-  65 2.13  50 2.14  42 2.14  49 2.14  44 2.15  48 2.16
  17  0.000  0.500  0.649-  48 2.13  64 2.13  49 2.13  47 2.14  39 2.14
  18  0.250  0.250  0.649-  50 2.12  47 2.13  40 2.13  48 2.14  63 2.14
  19  0.500  0.750  0.350-  51 2.14  38 2.14  53 2.14  54 2.14  61 2.14
  20  0.750  0.000  0.350-  52 2.14  37 2.14  53 2.14  54 2.14  62 2.14
  21  0.500  0.000  0.450-  53 2.14  51 2.14  52 2.14  36 2.14  59 2.14  57 2.14
  22  0.750  0.750  0.450-  54 2.14  51 2.14  52 2.14  35 2.14  60 2.14  58 2.14
  23  0.500  0.749  0.551-  65 2.13  58 2.14  42 2.14  57 2.14  51 2.15  55 2.16
  24  0.750  0.000  0.550-  57 2.14  58 2.14  66 2.14  41 2.14  52 2.14  56 2.17
  25  0.500  0.000  0.649-  55 2.13  63 2.13  57 2.13  40 2.14  56 2.14
  26  0.750  0.750  0.649-  58 2.12  56 2.13  39 2.13  55 2.14  64 2.14
  27  0.500  0.250  0.350-  59 2.14  53 2.14  46 2.14  61 2.14  62 2.14
  28  0.750  0.500  0.350-  60 2.14  54 2.14  45 2.14  61 2.14  62 2.14
  29  0.500  0.500  0.450-  61 2.14  51 2.14  59 2.14  60 2.14  44 2.14  65 2.15
  30  0.750  0.250  0.450-  62 2.14  52 2.14  59 2.14  60 2.14  43 2.14  66 2.14
  31  0.500  0.251  0.551-  65 2.13  50 2.14  66 2.14  57 2.14  59 2.15  63 2.16
  32  0.749  0.500  0.551-  65 2.13  58 2.14  66 2.14  49 2.14  60 2.15  64 2.16
  33  0.500  0.500  0.652-  48 2.15  55 2.15  63 2.15  64 2.15  65 2.18
  34  0.750  0.250  0.649-  66 2.12  56 2.13  47 2.13  64 2.14  63 2.14
  35  0.000  0.750  0.450-   3 2.14   5 2.14   6 2.14  13 2.14  22 2.14   7 2.14
  36  0.250  0.000  0.450-   4 2.14   5 2.14   6 2.14  14 2.14  21 2.14   8 2.14
  37  0.000  0.000  0.350-   5 2.14   4 2.14   3 2.14  11 2.14  20 2.14
  38  0.250  0.750  0.350-   6 2.14   4 2.14   3 2.14  12 2.14  19 2.14
  39  0.000  0.750  0.651-  10 2.13  26 2.13   9 2.13  17 2.14   7 2.17
  40  0.250  0.000  0.651-  10 2.13  18 2.13   9 2.13  25 2.14   8 2.17
  41  0.000  0.000  0.550-   9 2.13   8 2.14   7 2.14  15 2.14  24 2.14   5 2.14
  42  0.250  0.750  0.550-  10 2.12   8 2.14   7 2.14  16 2.14  23 2.14   6 2.14
  43  0.000  0.250  0.450-  11 2.14   5 2.14  13 2.14  14 2.14  30 2.14  15 2.14
  44  0.250  0.500  0.450-  12 2.14   6 2.14  13 2.14  14 2.14  29 2.14  16 2.15
  45  0.000  0.500  0.350-  13 2.14  11 2.14  12 2.14   3 2.14  28 2.14
  46  0.250  0.250  0.350-  14 2.14  11 2.14  12 2.14   4 2.14  27 2.14
  47  0.000  0.250  0.651-  18 2.13  34 2.13   9 2.13  17 2.14  15 2.17
  48  0.249  0.500  0.651-  17 2.13  10 2.14  18 2.14  33 2.15  16 2.16
  49  0.000  0.500  0.550-  17 2.13  15 2.14   7 2.14  13 2.14  16 2.14  32 2.14
  50  0.250  0.250  0.550-  18 2.12  15 2.14   8 2.14  16 2.14  31 2.14  14 2.14
  51  0.500  0.750  0.450-  19 2.14   6 2.14  21 2.14  22 2.14  29 2.14  23 2.15
  52  0.750  0.000  0.450-  20 2.14   5 2.14  21 2.14  22 2.14  30 2.14  24 2.14
  53  0.500  0.000  0.350-  21 2.14  19 2.14  20 2.14   4 2.14  27 2.14
  54  0.750  0.750  0.350-  22 2.14  19 2.14  20 2.14   3 2.14  28 2.14
  55  0.500  0.751  0.651-  25 2.13  10 2.14  26 2.14  33 2.15  23 2.16
  56  0.750  0.000  0.651-  26 2.13  34 2.13   9 2.13  25 2.14  24 2.17
  57  0.500  0.000  0.550-  25 2.13  24 2.14   8 2.14  21 2.14  23 2.14  31 2.14
  58  0.750  0.750  0.550-  26 2.12  24 2.14   7 2.14  23 2.14  32 2.14  22 2.14
  59  0.500  0.250  0.450-  27 2.14  21 2.14  14 2.14  29 2.14  30 2.14  31 2.15
  60  0.750  0.500  0.450-  28 2.14  22 2.14  13 2.14  29 2.14  30 2.14  32 2.15
  61  0.500  0.500  0.350-  29 2.14  19 2.14  27 2.14  28 2.14  12 2.14
  62  0.750  0.250  0.350-  30 2.14  20 2.14  27 2.14  28 2.14  11 2.14
  63  0.500  0.249  0.651-  25 2.13  18 2.14  34 2.14  33 2.15  31 2.16
  64  0.751  0.500  0.651-  17 2.13  26 2.14  34 2.14  33 2.15  32 2.16
  65  0.500  0.500  0.551-  16 2.13  23 2.13  31 2.13  32 2.13  29 2.15  33 2.18
  66  0.750  0.250  0.550-  34 2.12  24 2.14  15 2.14  32 2.14  31 2.14  30 2.14


IMPORTANT INFORMATION: All symmetrisations will be switched off!
NOSYMM: (Re-)initialisation of all symmetry stuff for point group C_1.


----------------------------------------------------------------------------------------

                                     Primitive cell

  volume of cell :    1563.6717

  direct lattice vectors                    reciprocal lattice vectors
     8.546113626  0.000000000  0.000000000     0.117012252  0.000000000  0.000000000
     0.000000000  8.546113626  0.000000000     0.000000000  0.117012252  0.000000000
     0.000000000  0.000000000 21.409585219     0.000000000  0.000000000  0.046708051

  length of vectors
     8.546113626  8.546113626 21.409585219     0.117012252  0.117012252  0.046708051

  position of ions in fractional coordinates (direct lattice)
     0.500000000  0.500000000  0.768736416
     0.500000000  0.500000000  0.822210893
     0.000000000  0.750000000  0.350310383
     0.250000000  0.000000000  0.350310383
     0.000000000  0.000000000  0.450103461
     0.250000000  0.750000000  0.450103461
     0.000000000  0.749911102  0.550256625
     0.250088898  0.000000000  0.550256625
     0.000000000  0.000000000  0.649548573
     0.249625761  0.750374239  0.649258508
     0.000000000  0.250000000  0.350310383
     0.250000000  0.500000000  0.350310383
     0.000000000  0.500000000  0.450103461
     0.250000000  0.250000000  0.450103461
     0.000000000  0.250088898  0.550256625
     0.250518455  0.500000000  0.550555343
     0.000000000  0.500000000  0.649424303
     0.249625761  0.249625761  0.649258508
     0.500000000  0.750000000  0.350310383
     0.750000000  0.000000000  0.350310383
     0.500000000  0.000000000  0.450103461
     0.750000000  0.750000000  0.450103461
     0.500000000  0.749481545  0.550555343
     0.749911102  0.000000000  0.550256625
     0.500000000  0.000000000  0.649424303
     0.750374239  0.750374239  0.649258508
     0.500000000  0.250000000  0.350310383
     0.750000000  0.500000000  0.350310383
     0.500000000  0.500000000  0.450103461
     0.750000000  0.250000000  0.450103461
     0.500000000  0.250518455  0.550555343
     0.749481545  0.500000000  0.550555343
     0.500000000  0.500000000  0.652187787
     0.750374239  0.249625761  0.649258508
     0.000000000  0.750000000  0.450103461
     0.250000000  0.000000000  0.450103461
     0.000000000  0.000000000  0.350310383
     0.250000000  0.750000000  0.350310383
     0.000000000  0.750299711  0.651447714
     0.249700289  0.000000000  0.651447714
     0.000000000  0.000000000  0.550054707
     0.249941515  0.750058485  0.550104933
     0.000000000  0.250000000  0.450103461
     0.250000000  0.500000000  0.450103461
     0.000000000  0.500000000  0.350310383
     0.250000000  0.250000000  0.350310383
     0.000000000  0.249700289  0.651447714
     0.248743428  0.500000000  0.651471990
     0.000000000  0.500000000  0.550039741
     0.249941515  0.249941515  0.550104933
     0.500000000  0.750000000  0.450103461
     0.750000000  0.000000000  0.450103461
     0.500000000  0.000000000  0.350310383
     0.750000000  0.750000000  0.350310383
     0.500000000  0.751256572  0.651471990
     0.750299711  0.000000000  0.651447714
     0.500000000  0.000000000  0.550039741
     0.750058485  0.750058485  0.550104933
     0.500000000  0.250000000  0.450103461
     0.750000000  0.500000000  0.450103461
     0.500000000  0.500000000  0.350310383
     0.750000000  0.250000000  0.350310383
     0.500000000  0.248743428  0.651471990
     0.751256572  0.500000000  0.651471990
     0.500000000  0.500000000  0.550568450
     0.750058485  0.249941515  0.550104933

  ion indices of the primitive-cell ions
   primitive index   ion index
                 1           1
                 2           2
                 3           3
                 4           4
                 5           5
                 6           6
                 7           7
                 8           8
                 9           9
                10          10
                11          11
                12          12
                13          13
                14          14
                15          15
                16          16
                17          17
                18          18
                19          19
                20          20
                21          21
                22          22
                23          23
                24          24
                25          25
                26          26
                27          27
                28          28
                29          29
                30          30
                31          31
                32          32
                33          33
                34          34
                35          35
                36          36
                37          37
                38          38
                39          39
                40          40
                41          41
                42          42
                43          43
                44          44
                45          45
                46          46
                47          47
                48          48
                49          49
                50          50
                51          51
                52          52
                53          53
                54          54
                55          55
                56          56
                57          57
                58          58
                59          59
                60          60
                61          61
                62          62
                63          63
                64          64
                65          65
                66          66

----------------------------------------------------------------------------------------



 KPOINTS: pymatgen v2020.8.13 with grid density =

Automatic generation of k-mesh.
 Grid dimensions read from file:
 generate k-points for:    2    2    1

 Generating k-lattice:

  Cartesian coordinates                     Fractional coordinates (reciprocal lattice)
     0.058506126  0.000000000  0.000000000     0.500000000  0.000000000  0.000000000
     0.000000000  0.058506126  0.000000000     0.000000000  0.500000000  0.000000000
     0.000000000  0.000000000  0.046708051     0.000000000  0.000000000  1.000000000

  Length of vectors
     0.058506126  0.058506126  0.046708051

  Shift w.r.t. Gamma in fractional coordinates (k-lattice)
     0.000000000  0.000000000  0.000000000


 Subroutine IBZKPT returns following result:
 ===========================================

 Found      4 irreducible k-points:

 Following reciprocal coordinates:
            Coordinates               Weight
  0.000000  0.000000  0.000000      1.000000
  0.500000  0.000000  0.000000      1.000000
  0.000000  0.500000  0.000000      1.000000
  0.500000  0.500000  0.000000      1.000000

 Following cartesian coordinates:
            Coordinates               Weight
  0.000000  0.000000  0.000000      1.000000
  0.058506  0.000000  0.000000      1.000000
  0.000000  0.058506  0.000000      1.000000
  0.058506  0.058506  0.000000      1.000000


 Subroutine IBZKPT_HF returns following result:
 ==============================================

 Found      4 k-points in 1st BZ
 the following      4 k-points will be used (e.g. in the exchange kernel)
 Following reciprocal coordinates:   # in IRBZ
  0.000000  0.000000  0.000000    0.25000000   1 t-inv F
  0.500000  0.000000  0.000000    0.25000000   2 t-inv F
  0.000000  0.500000  0.000000    0.25000000   3 t-inv F
  0.500000  0.500000  0.000000    0.25000000   4 t-inv F


--------------------------------------------------------------------------------------------------------




 Dimension of arrays:
   k-points           NKPTS =      4   k-points in BZ     NKDIM =      4   number of bands    NBANDS=    320
   number of dos      NEDOS =    301   number of ions     NIONS =     66
   non local maximal  LDIM  =      5   non local SUM 2l+1 LMDIM =     13
   total plane-waves  NPLWV = 882000
   max r-space proj   IRMAX =      1   max aug-charges    IRDMAX=  11315
   dimension x,y,z NGX =    70 NGY =   70 NGZ =  180
   dimension x,y,z NGXF=   140 NGYF=  140 NGZF=  360
   support grid    NGXF=   140 NGYF=  140 NGZF=  360
   ions per type =               1   1  32  32
   NGX,Y,Z   is equivalent  to a cutoff of  13.62, 13.62, 13.98 a.u.
   NGXF,Y,Z  is equivalent  to a cutoff of  27.23, 27.23, 27.95 a.u.

 SYSTEM =  MgO-rocksalt
 POSCAR =   C  O Mg  O

 Startparameter for this run:
   NWRITE =      2    write-flag & timer
   PREC   = accura    normal or accurate (medium, high low for compatibility)
   ISTART =      0    job   : 0-new  1-cont  2-samecut
   ICHARG =      2    charge: 1-file 2-atom 10-const
   ISPIN  =      1    spin polarized calculation?
   LNONCOLLINEAR =      F non collinear calculations
   LSORBIT =      F    spin-orbit coupling
   INIWAV =      1    electr: 0-lowe 1-rand  2-diag
   LASPH  =      T    aspherical Exc in radial PAW
 Electronic Relaxation 1
   ENCUT  =  600.0 eV  44.10 Ry    6.64 a.u.  17.07 17.07 42.76*2*pi/ulx,y,z
   ENINI  =  600.0     initial cutoff
   ENAUG  =  758.8 eV  augmentation charge cutoff
   NELM   =    200;   NELMIN=  8; NELMDL= -5     # of ELM steps
   EDIFF  = 0.1E-07   stopping-criterion for ELM
   LREAL  =      F    real-space projection
   NLSPLINE    = F    spline interpolate recip. space projectors
   LCOMPAT=      F    compatible to vasp.4.4
   GGA_COMPAT  = T    GGA compatible to vasp.4.4-vasp.4.6
   LMAXPAW     = -100 max onsite density
   LMAXMIX     =    2 max onsite mixed and CHGCAR
   VOSKOWN=      0    Vosko Wilk Nusair interpolation
   ROPT   =    0.00000   0.00000   0.00000   0.00000
 Ionic relaxation
   EDIFFG = 0.1E-06   stopping-criterion for IOM
   NSW    =    829    number of steps for IOM
   NBLOCK =      1;   KBLOCK =    829    inner block; outer block
   IBRION =      5    ionic relax: 0-MD 1-quasi-New 2-CG
   NFREE  =      2    steps in history (QN), initial steepest desc. (CG)
   ISIF   =      2    stress and relaxation
   IWAVPR =     11    prediction:  0-non 1-charg 2-wave 3-comb
   ISYM   =      0    0-nonsym 1-usesym 2-fastsym
   LCORR  =      T    Harris-Foulkes like correction to forces

   POTIM  = 0.0100    time-step for ionic-motion
   TEIN   =    0.0    initial temperature
   TEBEG  =    0.0;   TEEND  =   0.0 temperature during run
   SMASS  =  -3.00    Nose mass-parameter (am)
   estimated Nose-frequenzy (Omega)   =  0.10E-29 period in steps = 0.63E+48 mass=  -0.167E-26a.u.
   SCALEE = 1.0000    scale energy and forces
   NPACO  =    256;   APACO  = 10.0  distance and # of slots for P.C.
   PSTRESS=    0.0 pullay stress

  Mass of Ions in am
   POMASS =  12.01 16.00 24.30 16.00
  Ionic Valenz
   ZVAL   =   4.00  6.00  8.00  6.00
  Atomic Wigner-Seitz radii
   RWIGS  =  -1.00 -1.00 -1.00 -1.00
  virtual crystal weights
   VCA    =   1.00  1.00  1.00  1.00
   NELECT =     458.0000    total number of electrons
   NUPDOWN=      -1.0000    fix difference up-down

 DOS related values:
   EMIN   =  10.00;   EMAX   =-10.00  energy-range for DOS
   EFERMI =   0.00
   ISMEAR =     0;   SIGMA  =   0.05  broadening in eV -4-tet -1-fermi 0-gaus

 Electronic relaxation 2 (details)
   IALGO  =     58    algorithm
   LDIAG  =      T    sub-space diagonalisation (order eigenvalues)
   LSUBROT=      F    optimize rotation matrix (better conditioning)
   TURBO    =      0    0=normal 1=particle mesh
   IRESTART =      0    0=no restart 2=restart with 2 vectors
   NREBOOT  =      0    no. of reboots
   NMIN     =      0    reboot dimension
   EREF     =   0.00    reference energy to select bands
   IMIX   =      4    mixing-type and parameters
     AMIX     =   0.40;   BMIX     =  1.00
     AMIX_MAG =   1.60;   BMIX_MAG =  1.00
     AMIN     =   0.10
     WC   =   100.;   INIMIX=   1;  MIXPRE=   1;  MAXMIX= -45

 Intra band minimization:
   WEIMIN = 0.0010     energy-eigenvalue tresh-hold
   EBREAK =  0.78E-11  absolut break condition
   DEPER  =   0.30     relativ break condition

   TIME   =   0.40     timestep for ELM

  volume/ion in A,a.u.               =      23.69       159.88
  Fermi-wavevector in a.u.,A,eV,Ry     =   1.087213  2.054535 16.082535  1.182033
  Thomas-Fermi vector in A             =   2.223368

 Write flags
   LWAVE        =      F    write WAVECAR
   LDOWNSAMPLE  =      F    k-point downsampling of WAVECAR
   LCHARG       =      F    write CHGCAR
   LVTOT        =      F    write LOCPOT, total local potential
   LVHAR        =      F    write LOCPOT, Hartree potential only
   LELF         =      F    write electronic localiz. function (ELF)
   LORBIT       =      0    0 simple, 1 ext, 2 COOP (PROOUT), +10 PAW based schemes


 Dipole corrections
   LMONO  =      F    monopole corrections only (constant potential shift)
   LDIPOL =      T    correct potential (dipole corrections)
   IDIPOL =      3    1-x, 2-y, 3-z, 4-all directions
   EPSILON=  1.0000000 bulk dielectric constant

 Exchange correlation treatment:
   GGA     =    RE    GGA type
   LEXCH   =    40    internal setting for exchange type
   LIBXC   =     F    Libxc
   VOSKOWN =     0    Vosko Wilk Nusair interpolation
   LHFCALC =     F    Hartree Fock is set to
   LHFONE  =     F    Hartree Fock one center treatment
   AEXX    =    0.0000 exact exchange contribution

 vdW DFT:
   LUSE_VDW   =     T    switch on vdW DFT
   Zab_VDW    =-.8491    correlation parameter
   PARAM1     =0.1234
   PARAM2     =1.0000
   PARAM3     =0.0000
   -- rVV10 --
   BPARAM     = 6.3000
   CPARAM     = 0.0093

 Linear response parameters
   LEPSILON=     F    determine dielectric tensor
   LRPA    =     F    only Hartree local field effects (RPA)
   LNABLA  =     F    use nabla operator in PAW spheres
   LVEL    =     F    velocity operator in full k-point grid
   CSHIFT  =0.1000    complex shift for real part using Kramers Kronig
   OMEGAMAX=  -1.0    maximum frequency
   DEG_THRESHOLD= 0.2000000E-02 threshold for treating states as degnerate
   RTIME   =   -0.100 relaxation time in fs
  (WPLASMAI=    0.000 imaginary part of plasma frequency in eV, 0.658/RTIME)
   DFIELD  = 0.0000000 0.0000000 0.0000000 field for delta impulse in time

  Optional k-point grid parameters
   LKPOINTS_OPT  =     F    use optional k-point grid
   KPOINTS_OPT_MODE=     1    mode for optional k-point grid

 Orbital magnetization related:
   ORBITALMAG=     F  switch on orbital magnetization
   LCHIMAG   =     F  perturbation theory with respect to B field
   DQ        =  0.001000  dq finite difference perturbation B field
   LLRAUG    =     F  two centre corrections for induced B field



--------------------------------------------------------------------------------------------------------


 finite differences
   using selective dynamics as specified on POSCAR
 charge density and potential will be updated during run
 non-spin polarized calculation
 Conjugate gradient for all bands (Freysoldt, et al. PRB 79, 241103 (2009))
 preconditioned conjugated gradient
 perform sub-space diagonalisation
    before iterative eigenvector-optimisation
 modified Broyden-mixing scheme, WC =      100.0
 initial mixing is a Kerker type mixing with AMIX =  0.4000 and BMIX =      1.0000
 Hartree-type preconditioning will be used
 using additional bands           91
 reciprocal scheme for non local part
 use partial core corrections
 no Harris-corrections to forces
 use gradient corrections
 use of overlap-Matrix (Vanderbilt PP)
 Gauss-broadening in eV      SIGMA  =   0.05


--------------------------------------------------------------------------------------------------------


  energy-cutoff  :      600.00
  volume of cell :     1563.67
      direct lattice vectors                 reciprocal lattice vectors
     8.546113626  0.000000000  0.000000000     0.117012252  0.000000000  0.000000000
     0.000000000  8.546113626  0.000000000     0.000000000  0.117012252  0.000000000
     0.000000000  0.000000000 21.409585219     0.000000000  0.000000000  0.046708051

  length of vectors
     8.546113626  8.546113626 21.409585219     0.117012252  0.117012252  0.046708051



 k-points in units of 2pi/SCALE and weight: pymatgen v2020.8.13 with grid density =
   0.00000000  0.00000000  0.00000000       0.250
   0.05850613  0.00000000  0.00000000       0.250
   0.00000000  0.05850613  0.00000000       0.250
   0.05850613  0.05850613  0.00000000       0.250

 k-points in reciprocal lattice and weights: pymatgen v2020.8.13 with grid density =
   0.00000000  0.00000000  0.00000000       0.250
   0.50000000  0.00000000  0.00000000       0.250
   0.00000000  0.50000000  0.00000000       0.250
   0.50000000  0.50000000  0.00000000       0.250

 position of ions in fractional coordinates (direct lattice)
   0.50000000  0.50000000  0.76873642
   0.50000000  0.50000000  0.82221089
   0.00000000  0.75000000  0.35031038
   0.25000000  0.00000000  0.35031038
   0.00000000  0.00000000  0.45010346
   0.25000000  0.75000000  0.45010346
   0.00000000  0.74991110  0.55025663
   0.25008890  0.00000000  0.55025663
   0.00000000  0.00000000  0.64954857
   0.24962576  0.75037424  0.64925851
   0.00000000  0.25000000  0.35031038
   0.25000000  0.50000000  0.35031038
   0.00000000  0.50000000  0.45010346
   0.25000000  0.25000000  0.45010346
   0.00000000  0.25008890  0.55025663
   0.25051846  0.50000000  0.55055534
   0.00000000  0.50000000  0.64942430
   0.24962576  0.24962576  0.64925851
   0.50000000  0.75000000  0.35031038
   0.75000000  0.00000000  0.35031038
   0.50000000  0.00000000  0.45010346
   0.75000000  0.75000000  0.45010346
   0.50000000  0.74948154  0.55055534
   0.74991110  0.00000000  0.55025663
   0.50000000  0.00000000  0.64942430
   0.75037424  0.75037424  0.64925851
   0.50000000  0.25000000  0.35031038
   0.75000000  0.50000000  0.35031038
   0.50000000  0.50000000  0.45010346
   0.75000000  0.25000000  0.45010346
   0.50000000  0.25051846  0.55055534
   0.74948154  0.50000000  0.55055534
   0.50000000  0.50000000  0.65218779
   0.75037424  0.24962576  0.64925851
   0.00000000  0.75000000  0.45010346
   0.25000000  0.00000000  0.45010346
   0.00000000  0.00000000  0.35031038
   0.25000000  0.75000000  0.35031038
   0.00000000  0.75029971  0.65144771
   0.24970029  0.00000000  0.65144771
   0.00000000  0.00000000  0.55005471
   0.24994152  0.75005848  0.55010493
   0.00000000  0.25000000  0.45010346
   0.25000000  0.50000000  0.45010346
   0.00000000  0.50000000  0.35031038
   0.25000000  0.25000000  0.35031038
   0.00000000  0.24970029  0.65144771
   0.24874343  0.50000000  0.65147199
   0.00000000  0.50000000  0.55003974
   0.24994152  0.24994152  0.55010493
   0.50000000  0.75000000  0.45010346
   0.75000000  0.00000000  0.45010346
   0.50000000  0.00000000  0.35031038
   0.75000000  0.75000000  0.35031038
   0.50000000  0.75125657  0.65147199
   0.75029971  0.00000000  0.65144771
   0.50000000  0.00000000  0.55003974
   0.75005848  0.75005848  0.55010493
   0.50000000  0.25000000  0.45010346
   0.75000000  0.50000000  0.45010346
   0.50000000  0.50000000  0.35031038
   0.75000000  0.25000000  0.35031038
   0.50000000  0.24874343  0.65147199
   0.75125657  0.50000000  0.65147199
   0.50000000  0.50000000  0.55056845
   0.75005848  0.24994152  0.55010493

 position of ions in cartesian coordinates  (Angst):
   4.27305681  4.27305681 16.45832782
   4.27305681  4.27305681 17.60319417
   0.00000000  6.40958522  7.50000000
   2.13652841  0.00000000  7.50000000
   0.00000000  0.00000000  9.63652841
   2.13652841  6.40958522  9.63652841
   0.00000000  6.40882549 11.78076611
   2.13728814  0.00000000 11.78076611
   0.00000000  0.00000000 13.90656552
   2.13333012  6.41278351 13.90035536
   0.00000000  2.13652841  7.50000000
   2.13652841  4.27305681  7.50000000
   0.00000000  4.27305681  9.63652841
   2.13652841  2.13652841  9.63652841
   0.00000000  2.13728814 11.78076611
   2.14095919  4.27305681 11.78716154
   0.00000000  4.27305681 13.90390495
   2.13333012  2.13333012 13.90035536
   4.27305681  6.40958522  7.50000000
   6.40958522  0.00000000  7.50000000
   4.27305681  0.00000000  9.63652841
   6.40958522  6.40958522  9.63652841
   4.27305681  6.40515444 11.78716154
   6.40882549  0.00000000 11.78076611
   4.27305681  0.00000000 13.90390495
   6.41278351  6.41278351 13.90035536
   4.27305681  2.13652841  7.50000000
   6.40958522  4.27305681  7.50000000
   4.27305681  4.27305681  9.63652841
   6.40958522  2.13652841  9.63652841
   4.27305681  2.14095919 11.78716154
   6.40515444  4.27305681 11.78716154
   4.27305681  4.27305681 13.96307000
   6.41278351  2.13333012 13.90035536
   0.00000000  6.40958522  9.63652841
   2.13652841  0.00000000  9.63652841
   0.00000000  0.00000000  7.50000000
   2.13652841  6.40958522  7.50000000
   0.00000000  6.41214658 13.94722536
   2.13396704  0.00000000 13.94722536
   0.00000000  0.00000000 11.77644312
   2.13602859  6.41008504 11.77751844
   0.00000000  2.13652841  9.63652841
   2.13652841  4.27305681  9.63652841
   0.00000000  4.27305681  7.50000000
   2.13652841  2.13652841  7.50000000
   0.00000000  2.13396704 13.94722536
   2.12578960  4.27305681 13.94774509
   0.00000000  4.27305681 11.77612271
   2.13602859  2.13602859 11.77751844
   4.27305681  6.40958522  9.63652841
   6.40958522  0.00000000  9.63652841
   4.27305681  0.00000000  7.50000000
   6.40958522  6.40958522  7.50000000
   4.27305681  6.42032403 13.94774509
   6.41214658  0.00000000 13.94722536
   4.27305681  0.00000000 11.77612271
   6.41008504  6.41008504 11.77751844
   4.27305681  2.13652841  9.63652841
   6.40958522  4.27305681  9.63652841
   4.27305681  4.27305681  7.50000000
   6.40958522  2.13652841  7.50000000
   4.27305681  2.12578960 13.94774509
   6.42032403  4.27305681 13.94774509
   4.27305681  4.27305681 11.78744215
   6.41008504  2.13602859 11.77751844



--------------------------------------------------------------------------------------------------------


 k-point   1 :   0.0000 0.0000 0.0000  plane waves:   52089
 k-point   2 :   0.5000 0.0000 0.0000  plane waves:   52262
 k-point   3 :   0.0000 0.5000 0.0000  plane waves:   52262
 k-point   4 :   0.5000 0.5000 0.0000  plane waves:   52144

 maximum and minimum number of plane-waves per node :      6570     6470

 maximum number of plane-waves:     52262
 maximum index in each direction:
   IXMAX=   17   IYMAX=   17   IZMAX=   42
   IXMIN=  -17   IYMIN=  -17   IZMIN=  -42


 parallel 3D FFT for wavefunctions:
    minimum data exchange during FFTs selected (reduces bandwidth)
 parallel 3D FFT for charge:
    minimum data exchange during FFTs selected (reduces bandwidth)


 total amount of memory used by VASP MPI-rank0    67569. kBytes
=======================================================================

   base      :      30000. kBytes
   nonl-proj :      17930. kBytes
   fftplans  :       4926. kBytes
   grid      :       8190. kBytes
   one-center:         73. kBytes
   wavefun   :       6450. kBytes

     INWAV:  cpu time      0.0000: real time      0.0000
 Broyden mixing: mesh for mixing (old mesh)
   NGX = 35   NGY = 35   NGZ = 85
  (NGX  =140   NGY  =140   NGZ  =360)
  gives a total of 104125 points

 initial charge density was supplied:
 charge density of overlapping atoms calculated
 number of electron     458.0000000 magnetization
 keeping initial charge density in first step


--------------------------------------------------------------------------------------------------------


 Maximum index for augmentation-charges          599 (set IRDMAX)


--------------------------------------------------------------------------------------------------------


 First call to EWALD:  gamma=   0.153
 Maximum number of real-space cells 4x 4x 2
 Maximum number of reciprocal cells 2x 2x 5

    FEWALD:  cpu time      0.0034: real time      0.0034


--------------------------------------- Iteration      1(   1)  ---------------------------------------


vdW kernel read from vdw_kernel.bindat
  0.0000  0.2424  0.5071  0.7962  1.1119  1.4567  1.8333  2.2446  2.6937  3.1842
  3.7199  4.3049  4.9438  5.6415  6.4036  7.2358  8.1446  9.1372 10.2212 11.4050
 12.6979 14.1099 15.6519 17.3360 19.1751 21.1837 23.3773 25.7729 28.3892 31.2465
 34.3669 37.7748 41.4965 45.5611 50.0000

    POTLOK:  cpu time      3.0047: real time      3.0096
    SETDIJ:  cpu time      0.1884: real time      0.1885
    TRIAL :  cpu time     19.0515: real time     19.1742
    CORREC:  cpu time      0.0012: real time      0.0012
    --------------------------------------------
      LOOP:  cpu time     22.2475: real time     22.3977

 eigenvalue-minimisations  :  3072
 total energy-change (2. order) : 0.4275091E+04  (-0.3049044E+05)
 number of electron     458.0000000 magnetization
 augmentation part      458.0000000 magnetization

 DIPCOR: dipole corrections for dipol
 direction  3 min pos     1,
 dipolmoment           0.000000      0.000000     -0.000287 electrons x Angstroem
 Tr[quadrupol]     -6477.125341

 energy correction for charged system         0.000000 eV
 dipol+quadrupol energy correction           -0.000000 eV
 added-field ion interaction          0.002230 eV  (added to PSCEN)


 Free energy of the ion-electron system (eV)
  ---------------------------------------------------
  alpha Z        PSCENC =       882.50324387
  Ewald energy   TEWEN  =    132434.33740119
  -Hartree energ DENC   =   -168518.49348930
  -exchange      EXHF   =         0.00000000
  -V(xc)+E(xc)   XCENC  =      1731.21037048
  PAW double counting   =     32391.11887895   -36187.02304673
  entropy T*S    EENTRO =        -0.02292156
  eigenvalues    EBANDS =     -7006.18067916
  atomic energy  EATOM  =     48547.64153090
  ---------------------------------------------------
  free energy    TOTEN  =      4275.09128865 eV

  energy without entropy =     4275.11421021  energy(sigma->0) =     4275.10274943


--------------------------------------------------------------------------------------------------------




--------------------------------------- Iteration      1(   2)  ---------------------------------------


    TRIAL :  cpu time      3.9438: real time      3.9442
    CORREC:  cpu time      0.0003: real time      0.0003
    --------------------------------------------
      LOOP:  cpu time      3.9493: real time      3.9591

 eigenvalue-minimisations  :  3072
 total energy-change (2. order) :-0.4257929E+04  (-0.4182633E+04)
 number of electron     458.0000000 magnetization
 augmentation part      458.0000000 magnetization

 DIPCOR: dipole corrections for dipol
 direction  3 min pos     1,
 dipolmoment           0.000000      0.000000     -0.000287 electrons x Angstroem
 Tr[quadrupol]     -6477.125341

 energy correction for charged system         0.000000 eV
 dipol+quadrupol energy correction           -0.000000 eV
 added-field ion interaction          0.002230 eV  (added to PSCEN)


 Free energy of the ion-electron system (eV)
  ---------------------------------------------------
  alpha Z        PSCENC =       882.50324387
  Ewald energy   TEWEN  =    132434.33740119
  -Hartree energ DENC   =   -168518.49348930
  -exchange      EXHF   =         0.00000000
  -V(xc)+E(xc)   XCENC  =      1731.21037048
  PAW double counting   =     32391.11887895   -36187.02304673
  entropy T*S    EENTRO =        -0.00000000
  eigenvalues    EBANDS =    -11264.13235479
  atomic energy  EATOM  =     48547.64153090
  ---------------------------------------------------
  free energy    TOTEN  =        17.16253458 eV

  energy without entropy =       17.16253458  energy(sigma->0) =       17.16253458


--------------------------------------------------------------------------------------------------------




--------------------------------------- Iteration      1(   3)  ---------------------------------------


    TRIAL :  cpu time      4.1993: real time      4.2002
    CORREC:  cpu time      0.0003: real time      0.0003
    --------------------------------------------
      LOOP:  cpu time      4.2049: real time      4.2148

 eigenvalue-minimisations  :  3072
 total energy-change (2. order) :-0.3220326E+03  (-0.3199124E+03)
 number of electron     458.0000000 magnetization
 augmentation part      458.0000000 magnetization

 DIPCOR: dipole corrections for dipol
 direction  3 min pos     1,
 dipolmoment           0.000000      0.000000     -0.000287 electrons x Angstroem
 Tr[quadrupol]     -6477.125341

 energy correction for charged system         0.000000 eV
 dipol+quadrupol energy correction           -0.000000 eV
 added-field ion interaction          0.002230 eV  (added to PSCEN)


 Free energy of the ion-electron system (eV)
  ---------------------------------------------------
  alpha Z        PSCENC =       882.50324387
  Ewald energy   TEWEN  =    132434.33740119
  -Hartree energ DENC   =   -168518.49348930
  -exchange      EXHF   =         0.00000000
  -V(xc)+E(xc)   XCENC  =      1731.21037048
  PAW double counting   =     32391.11887895   -36187.02304673
  entropy T*S    EENTRO =        -0.00000000
  eigenvalues    EBANDS =    -11586.16498629
  atomic energy  EATOM  =     48547.64153090
  ---------------------------------------------------
  free energy    TOTEN  =      -304.87009692 eV

  energy without entropy =     -304.87009692  energy(sigma->0) =     -304.87009692


--------------------------------------------------------------------------------------------------------




--------------------------------------- Iteration      1(   4)  ---------------------------------------


    TRIAL :  cpu time      4.1920: real time      4.1924
    CORREC:  cpu time      0.0003: real time      0.0003
    --------------------------------------------
      LOOP:  cpu time      4.1979: real time      4.2070

 eigenvalue-minimisations  :  3072
 total energy-change (2. order) :-0.6158360E+01  (-0.6149543E+01)
 number of electron     458.0000000 magnetization
 augmentation part      458.0000000 magnetization

 DIPCOR: dipole corrections for dipol
 direction  3 min pos     1,
 dipolmoment           0.000000      0.000000     -0.000287 electrons x Angstroem
 Tr[quadrupol]     -6477.125341

 energy correction for charged system         0.000000 eV
 dipol+quadrupol energy correction           -0.000000 eV
 added-field ion interaction          0.002230 eV  (added to PSCEN)


 Free energy of the ion-electron system (eV)
  ---------------------------------------------------
  alpha Z        PSCENC =       882.50324387
  Ewald energy   TEWEN  =    132434.33740119
  -Hartree energ DENC   =   -168518.49348930
  -exchange      EXHF   =         0.00000000
  -V(xc)+E(xc)   XCENC  =      1731.21037048
  PAW double counting   =     32391.11887895   -36187.02304673
  entropy T*S    EENTRO =        -0.00000000
  eigenvalues    EBANDS =    -11592.32334657
  atomic energy  EATOM  =     48547.64153090
  ---------------------------------------------------
  free energy    TOTEN  =      -311.02845720 eV

  energy without entropy =     -311.02845720  energy(sigma->0) =     -311.02845720


--------------------------------------------------------------------------------------------------------




--------------------------------------- Iteration      1(   5)  ---------------------------------------


    TRIAL :  cpu time      4.3136: real time      4.3139
    CORREC:  cpu time      0.0003: real time      0.0003
    CHARGE:  cpu time      0.0429: real time      0.0432
    --------------------------------------------
      LOOP:  cpu time      4.3706: real time      4.3713

 eigenvalue-minimisations  :  3200
 total energy-change (2. order) :-0.8854198E-01  (-0.8853710E-01)
 number of electron     457.9999634 magnetization
 augmentation part      160.4600232 magnetization

 DIPCOR: dipole corrections for dipol
 direction  3 min pos     1,
 dipolmoment           0.000000      0.000000     -0.000287 electrons x Angstroem
 Tr[quadrupol]     -6477.125341

 energy correction for charged system         0.000000 eV
 dipol+quadrupol energy correction           -0.000000 eV
 added-field ion interaction          0.002230 eV  (added to PSCEN)


 Free energy of the ion-electron system (eV)
  ---------------------------------------------------
  alpha Z        PSCENC =       882.50324387
  Ewald energy   TEWEN  =    132434.33740119
  -Hartree energ DENC   =   -168518.49348930
  -exchange      EXHF   =         0.00000000
  -V(xc)+E(xc)   XCENC  =      1731.21037048
  PAW double counting   =     32391.11887895   -36187.02304673
  entropy T*S    EENTRO =        -0.00000000
  eigenvalues    EBANDS =    -11592.41188855
  atomic energy  EATOM  =     48547.64153090
  ---------------------------------------------------
  free energy    TOTEN  =      -311.11699918 eV

  energy without entropy =     -311.11699918  energy(sigma->0) =     -311.11699918


--------------------------------------------------------------------------------------------------------




--------------------------------------- Iteration      1(   6)  ---------------------------------------


    POTLOK:  cpu time      2.1608: real time      2.1613
    SETDIJ:  cpu time      0.1881: real time      0.1881
    TRIAL :  cpu time      1.1464: real time      1.1471
    CORREC:  cpu time      2.9253: real time      2.9256
    CHARGE:  cpu time      0.0375: real time      0.0375
    --------------------------------------------
      LOOP:  cpu time      6.4716: real time      6.4732

 eigenvalue-minimisations  :     0
 total energy-change (2. order) : 0.2042376E+03  (-0.1153210E+03)
 number of electron     457.9999663 magnetization
 augmentation part      157.0723115 magnetization

 DIPCOR: dipole corrections for dipol
 direction  3 min pos     1,
 dipolmoment           0.000000      0.000000      0.160532 electrons x Angstroem
 Tr[quadrupol]     -6510.359098

 energy correction for charged system         0.000000 eV
 dipol+quadrupol energy correction           -0.001491 eV
 added-field ion interaction         -1.248229 eV  (added to PSCEN)


 Free energy of the ion-electron system (eV)
  ---------------------------------------------------
  alpha Z        PSCENC =       879.29924465
  Ewald energy   TEWEN  =    132434.33740119
  -Hartree energ DENC   =   -172472.14337176
  -exchange      EXHF   =         0.00000000
  -V(xc)+E(xc)   XCENC  =      1869.15608278
  PAW double counting   =     37029.91050229   -40792.90965862
  entropy T*S    EENTRO =        -0.00000000
  eigenvalues    EBANDS =     -7602.17110033
  atomic energy  EATOM  =     48547.64153090
  ---------------------------------------------------
  free energy    TOTEN  =      -106.87936890 eV

  energy without entropy =     -106.87936890  energy(sigma->0) =     -106.87936890


--------------------------------------------------------------------------------------------------------




--------------------------------------- Iteration      1(   7)  ---------------------------------------


    POTLOK:  cpu time      2.1552: real time      2.1553
    SETDIJ:  cpu time      0.1879: real time      0.1879
    TRIAL :  cpu time      0.9954: real time      0.9955
    CORREC:  cpu time      2.8960: real time      2.8963
    CHARGE:  cpu time      0.0376: real time      0.0376
    --------------------------------------------
      LOOP:  cpu time      6.2773: real time      6.2868

 eigenvalue-minimisations  :     0
 total energy-change (2. order) :-0.1159726E+03  (-0.7959583E+01)
 number of electron     457.9999669 magnetization
 augmentation part      155.1242399 magnetization

 DIPCOR: dipole corrections for dipol
 direction  3 min pos     1,
 dipolmoment           0.000000      0.000000      0.138874 electrons x Angstroem
 Tr[quadrupol]     -6518.080068

 energy correction for charged system         0.000000 eV
 dipol+quadrupol energy correction           -0.001116 eV
 added-field ion interaction         -1.079819 eV  (added to PSCEN)


 Free energy of the ion-electron system (eV)
  ---------------------------------------------------
  alpha Z        PSCENC =       880.98442746
  Ewald energy   TEWEN  =    132434.33740119
  -Hartree energ DENC   =   -170478.47377782
  -exchange      EXHF   =         0.00000000
  -V(xc)+E(xc)   XCENC  =      1791.85977156
  PAW double counting   =     35736.69823450   -39562.98574509
  entropy T*S    EENTRO =        -0.00000000
  eigenvalues    EBANDS =     -9572.91380043
  atomic energy  EATOM  =     48547.64153090
  ---------------------------------------------------
  free energy    TOTEN  =      -222.85195773 eV

  energy without entropy =     -222.85195773  energy(sigma->0) =     -222.85195773


--------------------------------------------------------------------------------------------------------




--------------------------------------- Iteration      1(   8)  ---------------------------------------


    POTLOK:  cpu time      2.2467: real time      2.2468
    SETDIJ:  cpu time      0.1878: real time      0.1878
    TRIAL :  cpu time      0.9981: real time      0.9982
    CORREC:  cpu time      2.8976: real time      2.8978
    CHARGE:  cpu time      0.0373: real time      0.0373
    --------------------------------------------
      LOOP:  cpu time      6.3817: real time      6.3822

 eigenvalue-minimisations  :     0
 total energy-change (2. order) :-0.7987670E+01  (-0.4828333E+01)
 number of electron     457.9999672 magnetization
 augmentation part      155.2762818 magnetization

 DIPCOR: dipole corrections for dipol
 direction  3 min pos     1,
 dipolmoment           0.000000      0.000000      0.069281 electrons x Angstroem
 Tr[quadrupol]     -6516.867067

 energy correction for charged system         0.000000 eV
 dipol+quadrupol energy correction           -0.000278 eV
 added-field ion interaction         -0.538702 eV  (added to PSCEN)


 Free energy of the ion-electron system (eV)
  ---------------------------------------------------
  alpha Z        PSCENC =       881.59370458
  Ewald energy   TEWEN  =    132434.33740119
  -Hartree energ DENC   =   -170417.72021861
  -exchange      EXHF   =         0.00000000
  -V(xc)+E(xc)   XCENC  =      1782.21045843
  PAW double counting   =     35619.31937721   -39376.65172733
  entropy T*S    EENTRO =        -0.00000000
  eigenvalues    EBANDS =     -9701.57015406
  atomic energy  EATOM  =     48547.64153090
  ---------------------------------------------------
  free energy    TOTEN  =      -230.83962770 eV

  energy without entropy =     -230.83962770  energy(sigma->0) =     -230.83962770


--------------------------------------------------------------------------------------------------------




--------------------------------------- Iteration      1(   9)  ---------------------------------------


    POTLOK:  cpu time      2.2448: real time      2.2450
    SETDIJ:  cpu time      0.1879: real time      0.1879
    TRIAL :  cpu time      0.9987: real time      0.9992
    CORREC:  cpu time      2.9246: real time      2.9247
    CHARGE:  cpu time      0.0374: real time      0.0374
    --------------------------------------------
      LOOP:  cpu time      6.3986: real time      6.4085

 eigenvalue-minimisations  :     0
 total energy-change (2. order) :-0.4764463E+01  (-0.2041491E+01)
 number of electron     457.9999672 magnetization
 augmentation part      155.2768319 magnetization

 DIPCOR: dipole corrections for dipol
 direction  3 min pos     1,
 dipolmoment           0.000000      0.000000      0.065823 electrons x Angstroem
 Tr[quadrupol]     -6510.707636

 energy correction for charged system         0.000000 eV
 dipol+quadrupol energy correction           -0.000251 eV
 added-field ion interaction         -0.511811 eV  (added to PSCEN)


 Free energy of the ion-electron system (eV)
  ---------------------------------------------------
  alpha Z        PSCENC =       882.13354677
  Ewald energy   TEWEN  =    132434.33740119
  -Hartree energ DENC   =   -170309.42960176
  -exchange      EXHF   =         0.00000000
  -V(xc)+E(xc)   XCENC  =      1781.82286526
  PAW double counting   =     35540.25032641   -39338.03535806
  entropy T*S    EENTRO =        -0.00000000
  eigenvalues    EBANDS =     -9774.32480097
  atomic energy  EATOM  =     48547.64153090
  ---------------------------------------------------
  free energy    TOTEN  =      -235.60409025 eV

  energy without entropy =     -235.60409025  energy(sigma->0) =     -235.60409025


--------------------------------------------------------------------------------------------------------




--------------------------------------- Iteration      1(  10)  ---------------------------------------


    POTLOK:  cpu time      2.1741: real time      2.1742
    SETDIJ:  cpu time      0.1879: real time      0.1879
    TRIAL :  cpu time      1.0001: real time      1.0002
    CORREC:  cpu time      2.9114: real time      2.9116
    CHARGE:  cpu time      0.0376: real time      0.0376
    --------------------------------------------
      LOOP:  cpu time      6.3254: real time      6.3260

 eigenvalue-minimisations  :     0
 total energy-change (2. order) :-0.2047002E+01  (-0.7213687E+00)
 number of electron     457.9999671 magnetization
 augmentation part      155.2299388 magnetization

 DIPCOR: dipole corrections for dipol
 direction  3 min pos     1,
 dipolmoment           0.000000      0.000000      0.100009 electrons x Angstroem
 Tr[quadrupol]     -6509.009754

 energy correction for charged system         0.000000 eV
 dipol+quadrupol energy correction           -0.000579 eV
 added-field ion interaction         -0.777624 eV  (added to PSCEN)


 Free energy of the ion-electron system (eV)
  ---------------------------------------------------
  alpha Z        PSCENC =       882.00017543
  Ewald energy   TEWEN  =    132434.33740119
  -Hartree energ DENC   =   -170146.90584851
  -exchange      EXHF   =         0.00000000
  -V(xc)+E(xc)   XCENC  =      1779.93546560
  PAW double counting   =     35434.93896229   -39238.74468402
  entropy T*S    EENTRO =        -0.00000000
  eigenvalues    EBANDS =     -9930.85409495
  atomic energy  EATOM  =     48547.64153090
  ---------------------------------------------------
  free energy    TOTEN  =      -237.65109206 eV

  energy without entropy =     -237.65109206  energy(sigma->0) =     -237.65109206


--------------------------------------------------------------------------------------------------------




--------------------------------------- Iteration      1(  11)  ---------------------------------------


    POTLOK:  cpu time      2.2548: real time      2.2554
    SETDIJ:  cpu time      0.1885: real time      0.1885
    TRIAL :  cpu time      1.0062: real time      1.0063
    CORREC:  cpu time      2.9153: real time      2.9155
    CHARGE:  cpu time      0.0378: real time      0.0378
    --------------------------------------------
      LOOP:  cpu time      6.4090: real time      6.4179

 eigenvalue-minimisations  :     0
 total energy-change (2. order) :-0.7222728E+00  (-0.2335599E+00)
 number of electron     457.9999670 magnetization
 augmentation part      155.3357204 magnetization

 DIPCOR: dipole corrections for dipol
 direction  3 min pos     1,
 dipolmoment           0.000000      0.000000      0.106792 electrons x Angstroem
 Tr[quadrupol]     -6509.194627

 energy correction for charged system         0.000000 eV
 dipol+quadrupol energy correction           -0.000660 eV
 added-field ion interaction         -0.830366 eV  (added to PSCEN)


 Free energy of the ion-electron system (eV)
  ---------------------------------------------------
  alpha Z        PSCENC =       881.75302348
  Ewald energy   TEWEN  =    132434.33740119
  -Hartree energ DENC   =   -170072.75321786
  -exchange      EXHF   =         0.00000000
  -V(xc)+E(xc)   XCENC  =      1778.77489448
  PAW double counting   =     35378.84756025   -39172.95192429
  entropy T*S    EENTRO =        -0.00000000
  eigenvalues    EBANDS =    -10014.02263306
  atomic energy  EATOM  =     48547.64153090
  ---------------------------------------------------
  free energy    TOTEN  =      -238.37336491 eV

  energy without entropy =     -238.37336491  energy(sigma->0) =     -238.37336491


--------------------------------------------------------------------------------------------------------




--------------------------------------- Iteration      1(  12)  ---------------------------------------


    POTLOK:  cpu time      2.1697: real time      2.1698
    SETDIJ:  cpu time      0.1878: real time      0.1879
    TRIAL :  cpu time      0.9940: real time      0.9941
    CORREC:  cpu time      2.9131: real time      2.9137
    CHARGE:  cpu time      0.0377: real time      0.0377
    --------------------------------------------
      LOOP:  cpu time      6.3087: real time      6.3175

 eigenvalue-minimisations  :     0
 total energy-change (2. order) :-0.2335592E+00  (-0.7184675E-01)
 number of electron     457.9999670 magnetization
 augmentation part      155.4351307 magnetization

 DIPCOR: dipole corrections for dipol
 direction  3 min pos     1,
 dipolmoment           0.000000      0.000000      0.105202 electrons x Angstroem
 Tr[quadrupol]     -6509.465027

 energy correction for charged system         0.000000 eV
 dipol+quadrupol energy correction           -0.000640 eV
 added-field ion interaction         -0.818004 eV  (added to PSCEN)


 Free energy of the ion-electron system (eV)
  ---------------------------------------------------
  alpha Z        PSCENC =       881.67098794
  Ewald energy   TEWEN  =    132434.33740119
  -Hartree energ DENC   =   -170075.47155257
  -exchange      EXHF   =         0.00000000
  -V(xc)+E(xc)   XCENC  =      1778.94569787
  PAW double counting   =     35365.69170122   -39159.08524454
  entropy T*S    EENTRO =        -0.00000000
  eigenvalues    EBANDS =    -10012.33744616
  atomic energy  EATOM  =     48547.64153090
  ---------------------------------------------------
  free energy    TOTEN  =      -238.60692414 eV

  energy without entropy =     -238.60692414  energy(sigma->0) =     -238.60692414


--------------------------------------------------------------------------------------------------------




--------------------------------------- Iteration      1(  13)  ---------------------------------------


    POTLOK:  cpu time      2.2426: real time      2.2427
    SETDIJ:  cpu time      0.1880: real time      0.1880
    TRIAL :  cpu time      0.9939: real time      0.9939
    CORREC:  cpu time      2.9934: real time      2.9936
    CHARGE:  cpu time      0.0373: real time      0.0373
    --------------------------------------------
      LOOP:  cpu time      6.4692: real time      6.4698

 eigenvalue-minimisations  :     0
 total energy-change (2. order) :-0.7185052E-01  (-0.2779648E-01)
 number of electron     457.9999670 magnetization
 augmentation part      155.4578282 magnetization

 DIPCOR: dipole corrections for dipol
 direction  3 min pos     1,
 dipolmoment           0.000000      0.000000      0.104339 electrons x Angstroem
 Tr[quadrupol]     -6509.667743

 energy correction for charged system         0.000000 eV
 dipol+quadrupol energy correction           -0.000630 eV
 added-field ion interaction         -0.811295 eV  (added to PSCEN)


 Free energy of the ion-electron system (eV)
  ---------------------------------------------------
  alpha Z        PSCENC =       881.68342584
  Ewald energy   TEWEN  =    132434.33740119
  -Hartree energ DENC   =   -170088.60136002
  -exchange      EXHF   =         0.00000000
  -V(xc)+E(xc)   XCENC  =      1779.14344423
  PAW double counting   =     35361.28908972   -39158.07224133
  entropy T*S    EENTRO =        -0.00000000
  eigenvalues    EBANDS =     -9996.10006519
  atomic energy  EATOM  =     48547.64153090
  ---------------------------------------------------
  free energy    TOTEN  =      -238.67877466 eV

  energy without entropy =     -238.67877466  energy(sigma->0) =     -238.67877466


--------------------------------------------------------------------------------------------------------




--------------------------------------- Iteration      1(  14)  ---------------------------------------


    POTLOK:  cpu time      2.2090: real time      2.2091
    SETDIJ:  cpu time      0.1879: real time      0.1879
    TRIAL :  cpu time      0.9942: real time      0.9942
    CORREC:  cpu time      2.9049: real time      2.9051
    CHARGE:  cpu time      0.0377: real time      0.0377
    --------------------------------------------
      LOOP:  cpu time      6.3387: real time      6.3485

 eigenvalue-minimisations  :     0
 total energy-change (2. order) :-0.2779799E-01  (-0.1134259E-01)
 number of electron     457.9999670 magnetization
 augmentation part      155.4447961 magnetization

 DIPCOR: dipole corrections for dipol
 direction  3 min pos     1,
 dipolmoment           0.000000      0.000000      0.104667 electrons x Angstroem
 Tr[quadrupol]     -6509.889085

 energy correction for charged system         0.000000 eV
 dipol+quadrupol energy correction           -0.000634 eV
 added-field ion interaction         -0.813847 eV  (added to PSCEN)


 Free energy of the ion-electron system (eV)
  ---------------------------------------------------
  alpha Z        PSCENC =       881.69041466
  Ewald energy   TEWEN  =    132434.33740119
  -Hartree energ DENC   =   -170094.82467683
  -exchange      EXHF   =         0.00000000
  -V(xc)+E(xc)   XCENC  =      1779.12282857
  PAW double counting   =     35358.82808057   -39156.53780676
  entropy T*S    EENTRO =        -0.00000000
  eigenvalues    EBANDS =     -9988.96434495
  atomic energy  EATOM  =     48547.64153090
  ---------------------------------------------------
  free energy    TOTEN  =      -238.70657264 eV

  energy without entropy =     -238.70657264  energy(sigma->0) =     -238.70657264


--------------------------------------------------------------------------------------------------------




--------------------------------------- Iteration      1(  15)  ---------------------------------------


    POTLOK:  cpu time      2.1818: real time      2.1819
    SETDIJ:  cpu time      0.1879: real time      0.1879
    TRIAL :  cpu time      0.9956: real time      0.9957
    CORREC:  cpu time      2.9139: real time      2.9141
    CHARGE:  cpu time      0.0375: real time      0.0375
    --------------------------------------------
      LOOP:  cpu time      6.3223: real time      6.3321

 eigenvalue-minimisations  :     0
 total energy-change (2. order) :-0.1134556E-01  (-0.4782068E-02)
 number of electron     457.9999670 magnetization
 augmentation part      155.4366542 magnetization

 DIPCOR: dipole corrections for dipol
 direction  3 min pos     1,
 dipolmoment           0.000000      0.000000      0.104578 electrons x Angstroem
 Tr[quadrupol]     -6510.076794

 energy correction for charged system         0.000000 eV
 dipol+quadrupol energy correction           -0.000633 eV
 added-field ion interaction         -0.813155 eV  (added to PSCEN)


 Free energy of the ion-electron system (eV)
  ---------------------------------------------------
  alpha Z        PSCENC =       881.68557513
  Ewald energy   TEWEN  =    132434.33740119
  -Hartree energ DENC   =   -170102.30909816
  -exchange      EXHF   =         0.00000000
  -V(xc)+E(xc)   XCENC  =      1779.18027236
  PAW double counting   =     35362.10149271   -39158.88368010
  entropy T*S    EENTRO =        -0.00000000
  eigenvalues    EBANDS =     -9982.47141223
  atomic energy  EATOM  =     48547.64153090
  ---------------------------------------------------
  free energy    TOTEN  =      -238.71791820 eV

  energy without entropy =     -238.71791820  energy(sigma->0) =     -238.71791820


--------------------------------------------------------------------------------------------------------




--------------------------------------- Iteration      1(  16)  ---------------------------------------


    POTLOK:  cpu time      2.1921: real time      2.1925
    SETDIJ:  cpu time      0.1878: real time      0.1878
    TRIAL :  cpu time      0.9947: real time      0.9947
    CORREC:  cpu time      2.9291: real time      2.9293
    CHARGE:  cpu time      0.0375: real time      0.0375
    --------------------------------------------
      LOOP:  cpu time      6.3460: real time      6.3562

 eigenvalue-minimisations  :     0
 total energy-change (2. order) :-0.4779562E-02  (-0.1658071E-02)
 number of electron     457.9999670 magnetization
 augmentation part      155.4349030 magnetization

 DIPCOR: dipole corrections for dipol
 direction  3 min pos     1,
 dipolmoment           0.000000      0.000000      0.104509 electrons x Angstroem
 Tr[quadrupol]     -6510.165274

 energy correction for charged system         0.000000 eV
 dipol+quadrupol energy correction           -0.000632 eV
 added-field ion interaction         -0.812612 eV  (added to PSCEN)


 Free energy of the ion-electron system (eV)
  ---------------------------------------------------
  alpha Z        PSCENC =       881.68784964
  Ewald energy   TEWEN  =    132434.33740119
  -Hartree energ DENC   =   -170109.56177117
  -exchange      EXHF   =         0.00000000
  -V(xc)+E(xc)   XCENC  =      1779.29036564
  PAW double counting   =     35367.21781138   -39163.58218646
  entropy T*S    EENTRO =        -0.00000000
  eigenvalues    EBANDS =     -9975.75369889
  atomic energy  EATOM  =     48547.64153090
  ---------------------------------------------------
  free energy    TOTEN  =      -238.72269777 eV

  energy without entropy =     -238.72269777  energy(sigma->0) =     -238.72269777


--------------------------------------------------------------------------------------------------------




--------------------------------------- Iteration      1(  17)  ---------------------------------------


    POTLOK:  cpu time      2.1978: real time      2.1980
    SETDIJ:  cpu time      0.1881: real time      0.1881
    TRIAL :  cpu time      0.9950: real time      0.9950
    CORREC:  cpu time      2.9228: real time      2.9234
    CHARGE:  cpu time      0.0375: real time      0.0375
    --------------------------------------------
      LOOP:  cpu time      6.3553: real time      6.3562

 eigenvalue-minimisations  :     0
 total energy-change (2. order) :-0.1654525E-02  (-0.5744435E-03)
 number of electron     457.9999670 magnetization
 augmentation part      155.4348572 magnetization

 DIPCOR: dipole corrections for dipol
 direction  3 min pos     1,
 dipolmoment           0.000000      0.000000      0.105139 electrons x Angstroem
 Tr[quadrupol]     -6510.166585

 energy correction for charged system         0.000000 eV
 dipol+quadrupol energy correction           -0.000640 eV
 added-field ion interaction         -0.817512 eV  (added to PSCEN)


 Free energy of the ion-electron system (eV)
  ---------------------------------------------------
  alpha Z        PSCENC =       881.68773049
  Ewald energy   TEWEN  =    132434.33740119
  -Hartree energ DENC   =   -170111.16727841
  -exchange      EXHF   =         0.00000000
  -V(xc)+E(xc)   XCENC  =      1779.30587096
  PAW double counting   =     35369.47020242   -39166.06092133
  entropy T*S    EENTRO =        -0.00000000
  eigenvalues    EBANDS =     -9973.93888853
  atomic energy  EATOM  =     48547.64153090
  ---------------------------------------------------
  free energy    TOTEN  =      -238.72435229 eV

  energy without entropy =     -238.72435229  energy(sigma->0) =     -238.72435229


--------------------------------------------------------------------------------------------------------




--------------------------------------- Iteration      1(  18)  ---------------------------------------


    POTLOK:  cpu time      2.2149: real time      2.2150
    SETDIJ:  cpu time      0.1879: real time      0.1879
    TRIAL :  cpu time      0.9945: real time      0.9946
    CORREC:  cpu time      2.9145: real time      2.9147
    CHARGE:  cpu time      0.0379: real time      0.0379
    --------------------------------------------
      LOOP:  cpu time      6.3551: real time      6.3645

 eigenvalue-minimisations  :     0
 total energy-change (2. order) :-0.5728585E-03  (-0.1980497E-03)
 number of electron     457.9999670 magnetization
 augmentation part      155.4351596 magnetization

 DIPCOR: dipole corrections for dipol
 direction  3 min pos     1,
 dipolmoment           0.000000      0.000000      0.105630 electrons x Angstroem
 Tr[quadrupol]     -6510.147469

 energy correction for charged system         0.000000 eV
 dipol+quadrupol energy correction           -0.000646 eV
 added-field ion interaction         -0.821333 eV  (added to PSCEN)


 Free energy of the ion-electron system (eV)
  ---------------------------------------------------
  alpha Z        PSCENC =       881.68142525
  Ewald energy   TEWEN  =    132434.33740119
  -Hartree energ DENC   =   -170110.98391670
  -exchange      EXHF   =         0.00000000
  -V(xc)+E(xc)   XCENC  =      1779.31017612
  PAW double counting   =     35371.03910339   -39167.70949709
  entropy T*S    EENTRO =        -0.00000000
  eigenvalues    EBANDS =     -9974.04114821
  atomic energy  EATOM  =     48547.64153090
  ---------------------------------------------------
  free energy    TOTEN  =      -238.72492515 eV

  energy without entropy =     -238.72492515  energy(sigma->0) =     -238.72492515


--------------------------------------------------------------------------------------------------------




--------------------------------------- Iteration      1(  19)  ---------------------------------------


    POTLOK:  cpu time      2.2033: real time      2.2034
    SETDIJ:  cpu time      0.1879: real time      0.1880
    TRIAL :  cpu time      0.9944: real time      0.9944
    CORREC:  cpu time      2.9205: real time      2.9206
    CHARGE:  cpu time      0.0376: real time      0.0376
    --------------------------------------------
      LOOP:  cpu time      6.3580: real time      6.3586

 eigenvalue-minimisations  :     0
 total energy-change (2. order) :-0.1983352E-03  (-0.7542544E-04)
 number of electron     457.9999670 magnetization
 augmentation part      155.4346839 magnetization

 DIPCOR: dipole corrections for dipol
 direction  3 min pos     1,
 dipolmoment           0.000000      0.000000      0.105747 electrons x Angstroem
 Tr[quadrupol]     -6510.121464

 energy correction for charged system         0.000000 eV
 dipol+quadrupol energy correction           -0.000647 eV
 added-field ion interaction         -0.822242 eV  (added to PSCEN)


 Free energy of the ion-electron system (eV)
  ---------------------------------------------------
  alpha Z        PSCENC =       881.67814936
  Ewald energy   TEWEN  =    132434.33740119
  -Hartree energ DENC   =   -170110.58535919
  -exchange      EXHF   =         0.00000000
  -V(xc)+E(xc)   XCENC  =      1779.32543878
  PAW double counting   =     35371.93889739   -39168.52706946
  entropy T*S    EENTRO =        -0.00000000
  eigenvalues    EBANDS =     -9974.53411246
  atomic energy  EATOM  =     48547.64153090
  ---------------------------------------------------
  free energy    TOTEN  =      -238.72512349 eV

  energy without entropy =     -238.72512349  energy(sigma->0) =     -238.72512349


--------------------------------------------------------------------------------------------------------




--------------------------------------- Iteration      1(  20)  ---------------------------------------


    POTLOK:  cpu time      2.2088: real time      2.2090
    SETDIJ:  cpu time      0.1878: real time      0.1878
    TRIAL :  cpu time      0.9951: real time      0.9953
    CORREC:  cpu time      2.9254: real time      2.9256
    CHARGE:  cpu time      0.0377: real time      0.0377
    --------------------------------------------
      LOOP:  cpu time      6.3605: real time      6.3699

 eigenvalue-minimisations  :     0
 total energy-change (2. order) :-0.7553155E-04  (-0.2394467E-04)
 number of electron     457.9999670 magnetization
 augmentation part      155.4344900 magnetization

 DIPCOR: dipole corrections for dipol
 direction  3 min pos     1,
 dipolmoment           0.000000      0.000000      0.105746 electrons x Angstroem
 Tr[quadrupol]     -6510.102701

 energy correction for charged system         0.000000 eV
 dipol+quadrupol energy correction           -0.000647 eV
 added-field ion interaction         -0.822232 eV  (added to PSCEN)


 Free energy of the ion-electron system (eV)
  ---------------------------------------------------
  alpha Z        PSCENC =       881.67810512
[...]
      2.133330  6.412784 13.900355            0           0           0
      0.000000  2.136528  7.500000            0           0           0
      2.136528  4.273057  7.500000            0           0           0
      0.000000  4.273057  9.636528            0           0           0
      2.136528  2.136528  9.636528            0           0           0
      0.000000  2.137288 11.780766            0           0           0
      2.140959  4.273057 11.787162            0           0           0
      0.000000  4.273057 13.903905            0           0           0
      2.133330  2.133330 13.900355            0           0           0
      4.273057  6.409585  7.500000            0           0           0
      6.409585  0.000000  7.500000            0           0           0
      4.273057  0.000000  9.636528            0           0           0
      6.409585  6.409585  9.636528            0           0           0
      4.273057  6.405154 11.787162            0           0           0
      6.408825  0.000000 11.780766            0           0           0
      4.273057  0.000000 13.903905            0           0           0
      6.412784  6.412784 13.900355            0           0           0
      4.273057  2.136528  7.500000            0           0           0
      6.409585  4.273057  7.500000            0           0           0
      4.273057  4.273057  9.636528            0           0           0
      6.409585  2.136528  9.636528            0           0           0
      4.273057  2.140959 11.787162            0           0           0
      6.405154  4.273057 11.787162            0           0           0
      4.273057  4.273057 13.963070            0           0           0
      6.412784  2.133330 13.900355            0           0           0
      0.000000  6.409585  9.636528            0           0           0
      2.136528  0.000000  9.636528            0           0           0
      0.000000  0.000000  7.500000            0           0           0
      2.136528  6.409585  7.500000            0           0           0
      0.000000  6.412147 13.947225            0           0           0
      2.133967  0.000000 13.947225            0           0           0
      0.000000  0.000000 11.776443            0           0           0
      2.136029  6.410085 11.777518            0           0           0
      0.000000  2.136528  9.636528            0           0           0
      2.136528  4.273057  9.636528            0           0           0
      0.000000  4.273057  7.500000            0           0           0
      2.136528  2.136528  7.500000            0           0           0
      0.000000  2.133967 13.947225            0           0           0
      2.125790  4.273057 13.947745            0           0           0
      0.000000  4.273057 11.776123            0           0           0
      2.136029  2.136029 11.777518            0           0           0
      4.273057  6.409585  9.636528            0           0           0
      6.409585  0.000000  9.636528            0           0           0
      4.273057  0.000000  7.500000            0           0           0
      6.409585  6.409585  7.500000            0           0           0
      4.273057  6.420324 13.947745            0           0           0
      6.412147  0.000000 13.947225            0           0           0
      4.273057  0.000000 11.776123            0           0           0
      6.410085  6.410085 11.777518            0           0           0
      4.273057  2.136528  9.636528            0           0           0
      6.409585  4.273057  9.636528            0           0           0
      4.273057  4.273057  7.500000            0           0           0
      6.409585  2.136528  7.500000            0           0           0
      4.273057  2.125790 13.947745            0           0           0
      6.420324  4.273057 13.947745            0           0           0
      4.273057  4.273057 11.787442            0           0           0
      6.410085  2.136029 11.777518            0           0           0

   4 f  =    3.121990 THz    19.616041 2PiTHz  104.138375 cm-1    12.911507 meV
             X         Y         Z           dx          dy          dz
      4.273057  4.273057 16.458328    -0.000110   -0.001291   -0.654034
      4.273057  4.273057 17.603194     0.001938   -0.001908   -0.756459
      0.000000  6.409585  7.500000            0           0           0
      2.136528  0.000000  7.500000            0           0           0
      0.000000  0.000000  9.636528            0           0           0
      2.136528  6.409585  9.636528            0           0           0
      0.000000  6.408825 11.780766            0           0           0
      2.137288  0.000000 11.780766            0           0           0
      0.000000  0.000000 13.906566            0           0           0
      2.133330  6.412784 13.900355            0           0           0
      0.000000  2.136528  7.500000            0           0           0
      2.136528  4.273057  7.500000            0           0           0
      0.000000  4.273057  9.636528            0           0           0
      2.136528  2.136528  9.636528            0           0           0
      0.000000  2.137288 11.780766            0           0           0
      2.140959  4.273057 11.787162            0           0           0
      0.000000  4.273057 13.903905            0           0           0
      2.133330  2.133330 13.900355            0           0           0
      4.273057  6.409585  7.500000            0           0           0
      6.409585  0.000000  7.500000            0           0           0
      4.273057  0.000000  9.636528            0           0           0
      6.409585  6.409585  9.636528            0           0           0
      4.273057  6.405154 11.787162            0           0           0
      6.408825  0.000000 11.780766            0           0           0
      4.273057  0.000000 13.903905            0           0           0
      6.412784  6.412784 13.900355            0           0           0
      4.273057  2.136528  7.500000            0           0           0
      6.409585  4.273057  7.500000            0           0           0
      4.273057  4.273057  9.636528            0           0           0
      6.409585  2.136528  9.636528            0           0           0
      4.273057  2.140959 11.787162            0           0           0
      6.405154  4.273057 11.787162            0           0           0
      4.273057  4.273057 13.963070            0           0           0
      6.412784  2.133330 13.900355            0           0           0
      0.000000  6.409585  9.636528            0           0           0
      2.136528  0.000000  9.636528            0           0           0
      0.000000  0.000000  7.500000            0           0           0
      2.136528  6.409585  7.500000            0           0           0
      0.000000  6.412147 13.947225            0           0           0
      2.133967  0.000000 13.947225            0           0           0
      0.000000  0.000000 11.776443            0           0           0
      2.136029  6.410085 11.777518            0           0           0
      0.000000  2.136528  9.636528            0           0           0
      2.136528  4.273057  9.636528            0           0           0
      0.000000  4.273057  7.500000            0           0           0
      2.136528  2.136528  7.500000            0           0           0
      0.000000  2.133967 13.947225            0           0           0
      2.125790  4.273057 13.947745            0           0           0
      0.000000  4.273057 11.776123            0           0           0
      2.136029  2.136029 11.777518            0           0           0
      4.273057  6.409585  9.636528            0           0           0
      6.409585  0.000000  9.636528            0           0           0
      4.273057  0.000000  7.500000            0           0           0
      6.409585  6.409585  7.500000            0           0           0
      4.273057  6.420324 13.947745            0           0           0
      6.412147  0.000000 13.947225            0           0           0
      4.273057  0.000000 11.776123            0           0           0
      6.410085  6.410085 11.777518            0           0           0
      4.273057  2.136528  9.636528            0           0           0
      6.409585  4.273057  9.636528            0           0           0
      4.273057  4.273057  7.500000            0           0           0
      6.409585  2.136528  7.500000            0           0           0
      4.273057  2.125790 13.947745            0           0           0
      6.420324  4.273057 13.947745            0           0           0
      4.273057  4.273057 11.787442            0           0           0
      6.410085  2.136029 11.777518            0           0           0

   5 f/i=    1.058794 THz     6.652600 2PiTHz   35.317570 cm-1     4.378819 meV
             X         Y         Z           dx          dy          dz
      4.273057  4.273057 16.458328    -0.315209    0.150226   -0.001697
      4.273057  4.273057 17.603194    -0.844274    0.406535   -0.001932
      0.000000  6.409585  7.500000            0           0           0
      2.136528  0.000000  7.500000            0           0           0
      0.000000  0.000000  9.636528            0           0           0
      2.136528  6.409585  9.636528            0           0           0
      0.000000  6.408825 11.780766            0           0           0
      2.137288  0.000000 11.780766            0           0           0
      0.000000  0.000000 13.906566            0           0           0
      2.133330  6.412784 13.900355            0           0           0
      0.000000  2.136528  7.500000            0           0           0
      2.136528  4.273057  7.500000            0           0           0
      0.000000  4.273057  9.636528            0           0           0
      2.136528  2.136528  9.636528            0           0           0
      0.000000  2.137288 11.780766            0           0           0
      2.140959  4.273057 11.787162            0           0           0
      0.000000  4.273057 13.903905            0           0           0
      2.133330  2.133330 13.900355            0           0           0
      4.273057  6.409585  7.500000            0           0           0
      6.409585  0.000000  7.500000            0           0           0
      4.273057  0.000000  9.636528            0           0           0
      6.409585  6.409585  9.636528            0           0           0
      4.273057  6.405154 11.787162            0           0           0
      6.408825  0.000000 11.780766            0           0           0
      4.273057  0.000000 13.903905            0           0           0
      6.412784  6.412784 13.900355            0           0           0
      4.273057  2.136528  7.500000            0           0           0
      6.409585  4.273057  7.500000            0           0           0
      4.273057  4.273057  9.636528            0           0           0
      6.409585  2.136528  9.636528            0           0           0
      4.273057  2.140959 11.787162            0           0           0
      6.405154  4.273057 11.787162            0           0           0
      4.273057  4.273057 13.963070            0           0           0
      6.412784  2.133330 13.900355            0           0           0
      0.000000  6.409585  9.636528            0           0           0
      2.136528  0.000000  9.636528            0           0           0
      0.000000  0.000000  7.500000            0           0           0
      2.136528  6.409585  7.500000            0           0           0
      0.000000  6.412147 13.947225            0           0           0
      2.133967  0.000000 13.947225            0           0           0
      0.000000  0.000000 11.776443            0           0           0
      2.136029  6.410085 11.777518            0           0           0
      0.000000  2.136528  9.636528            0           0           0
      2.136528  4.273057  9.636528            0           0           0
      0.000000  4.273057  7.500000            0           0           0
      2.136528  2.136528  7.500000            0           0           0
      0.000000  2.133967 13.947225            0           0           0
      2.125790  4.273057 13.947745            0           0           0
      0.000000  4.273057 11.776123            0           0           0
      2.136029  2.136029 11.777518            0           0           0
      4.273057  6.409585  9.636528            0           0           0
      6.409585  0.000000  9.636528            0           0           0
      4.273057  0.000000  7.500000            0           0           0
      6.409585  6.409585  7.500000            0           0           0
      4.273057  6.420324 13.947745            0           0           0
      6.412147  0.000000 13.947225            0           0           0
      4.273057  0.000000 11.776123            0           0           0
      6.410085  6.410085 11.777518            0           0           0
      4.273057  2.136528  9.636528            0           0           0
      6.409585  4.273057  9.636528            0           0           0
      4.273057  4.273057  7.500000            0           0           0
      6.409585  2.136528  7.500000            0           0           0
      4.273057  2.125790 13.947745            0           0           0
      6.420324  4.273057 13.947745            0           0           0
      4.273057  4.273057 11.787442            0           0           0
      6.410085  2.136029 11.777518            0           0           0

   6 f/i=    1.112155 THz     6.987876 2PiTHz   37.097497 cm-1     4.599501 meV
             X         Y         Z           dx          dy          dz
      4.273057  4.273057 16.458328     0.152143    0.315117   -0.000832
      4.273057  4.273057 17.603194     0.405824    0.844310   -0.000931
      0.000000  6.409585  7.500000            0           0           0
      2.136528  0.000000  7.500000            0           0           0
      0.000000  0.000000  9.636528            0           0           0
      2.136528  6.409585  9.636528            0           0           0
      0.000000  6.408825 11.780766            0           0           0
      2.137288  0.000000 11.780766            0           0           0
      0.000000  0.000000 13.906566            0           0           0
      2.133330  6.412784 13.900355            0           0           0
      0.000000  2.136528  7.500000            0           0           0
      2.136528  4.273057  7.500000            0           0           0
      0.000000  4.273057  9.636528            0           0           0
      2.136528  2.136528  9.636528            0           0           0
      0.000000  2.137288 11.780766            0           0           0
      2.140959  4.273057 11.787162            0           0           0
      0.000000  4.273057 13.903905            0           0           0
      2.133330  2.133330 13.900355            0           0           0
      4.273057  6.409585  7.500000            0           0           0
      6.409585  0.000000  7.500000            0           0           0
      4.273057  0.000000  9.636528            0           0           0
      6.409585  6.409585  9.636528            0           0           0
      4.273057  6.405154 11.787162            0           0           0
      6.408825  0.000000 11.780766            0           0           0
      4.273057  0.000000 13.903905            0           0           0
      6.412784  6.412784 13.900355            0           0           0
      4.273057  2.136528  7.500000            0           0           0
      6.409585  4.273057  7.500000            0           0           0
      4.273057  4.273057  9.636528            0           0           0
      6.409585  2.136528  9.636528            0           0           0
      4.273057  2.140959 11.787162            0           0           0
      6.405154  4.273057 11.787162            0           0           0
      4.273057  4.273057 13.963070            0           0           0
      6.412784  2.133330 13.900355            0           0           0
      0.000000  6.409585  9.636528            0           0           0
      2.136528  0.000000  9.636528            0           0           0
      0.000000  0.000000  7.500000            0           0           0
      2.136528  6.409585  7.500000            0           0           0
      0.000000  6.412147 13.947225            0           0           0
      2.133967  0.000000 13.947225            0           0           0
      0.000000  0.000000 11.776443            0           0           0
      2.136029  6.410085 11.777518            0           0           0
      0.000000  2.136528  9.636528            0           0           0
      2.136528  4.273057  9.636528            0           0           0
      0.000000  4.273057  7.500000            0           0           0
      2.136528  2.136528  7.500000            0           0           0
      0.000000  2.133967 13.947225            0           0           0
      2.125790  4.273057 13.947745            0           0           0
      0.000000  4.273057 11.776123            0           0           0
      2.136029  2.136029 11.777518            0           0           0
      4.273057  6.409585  9.636528            0           0           0
      6.409585  0.000000  9.636528            0           0           0
      4.273057  0.000000  7.500000            0           0           0
      6.409585  6.409585  7.500000            0           0           0
      4.273057  6.420324 13.947745            0           0           0
      6.412147  0.000000 13.947225            0           0           0
      4.273057  0.000000 11.776123            0           0           0
      6.410085  6.410085 11.777518            0           0           0
      4.273057  2.136528  9.636528            0           0           0
      6.409585  4.273057  9.636528            0           0           0
      4.273057  4.273057  7.500000            0           0           0
      6.409585  2.136528  7.500000            0           0           0
      4.273057  2.125790 13.947745            0           0           0
      6.420324  4.273057 13.947745            0           0           0
      4.273057  4.273057 11.787442            0           0           0
      6.410085  2.136029 11.777518            0           0           0

 Finite differences POTIM=   1.0000000000000000E-002
     LOOP+:  cpu time    108.3607: real time    108.5743
    4ORBIT:  cpu time      0.0000: real time      0.0000

 total amount of memory used by VASP MPI-rank0    67569. kBytes
=======================================================================

   base      :      30000. kBytes
   nonl-proj :      17930. kBytes
   fftplans  :       4926. kBytes
   grid      :       8190. kBytes
   one-center:         73. kBytes
   wavefun   :       6450. kBytes



 General timing and accounting informations for this job:
 ========================================================

                  Total CPU time used (sec):     1513.740
                            User time (sec):     1508.685
                          System time (sec):        5.055
                         Elapsed time (sec):     1527.682

                   Maximum memory used (kb):      271492.
                   Average memory used (kb):          N/A

                          Minor page faults:       494027
                          Major page faults:           52
                 Voluntary context switches:        20339
