 vasp.6.3.0 20Jan22 (build Apr  1 2022 16:44:48) complex                         
 executed on        HPECrayEX_GCC date 2023.01.23  21:53:26
 running  512 mpi-ranks, with    1 threads/rank
 distrk:  each k-point on  512 cores,    1 groups
 distr:  one band on NCORE=   8 cores,   64 groups


--------------------------------------------------------------------------------------------------------


 INCAR:
   SYSTEM = MgO-rocksalt
   ISMEAR = 0
   SIGMA = 0.05
   EDIFF = 1E-8
   ALGO = ALL
   ISTART = 0
   IBRION = 5
   POTIM = 0.01
   NFREE = 2
   ISYM = 0
   DIPOL = 0.5 0.5 0.5
   IDIPOL = 3
   LDIPOL = .TRUE.
   GGA = PE
   IVDW = 1
   VDW_C6 = 1.75 0.70 0.63 0.70
   VDW_R0 = 1.452 1.342 1.243 1.342
   ENCUT = 600
   PREC = Accurate
   LASPH = .TRUE.
   LREAL = .FALSE.
   ISPIN = 1
   NELM = 200
   NELMIN = 8
   NCORE = 8
   KPAR = 1
   LWAVE = .FALSE.
   LCHARG = .FALSE.

 POTCAR:    PAW_PBE C 08Apr2002                   
 POTCAR:    PAW_PBE O 08Apr2002                   
 POTCAR:    PAW_PBE Mg_pv 13Apr2007               
 POTCAR:    PAW_PBE O 08Apr2002                   
 POTCAR:    PAW_PBE C 08Apr2002                   
   SHA256 =  253f7b50bb8d59471dbedb8285d89021f4a42ed1a2c5d38a03a736e69125dd95 C/POTCAR              
   COPYR  = (c) Copyright 08Apr2002 Georg Kresse                                                    
   COPYR  = This file is part of the software VASP. Any use, copying, and all other rights are regul
   COPYR  = If you do not have a valid VASP license, you may not use, copy or distribute this file. 
   VRHFIN =C: s2p2                                                                                  
   LEXCH  = PE                                                                                      
   EATOM  =   147.1560 eV,   10.8157 Ry                                                             
                                                                                                    
   TITEL  = PAW_PBE C 08Apr2002                                                                     
   LULTRA =        F    use ultrasoft PP ?                                                          
   IUNSCR =        1    unscreen: 0-lin 1-nonlin 2-no                                               
   RPACOR =    1.200    partial core radius                                                         
   POMASS =   12.011; ZVAL   =    4.000    mass and valenz                                          
   RCORE  =    1.500    outmost cutoff radius                                                       
   RWIGS  =    1.630; RWIGS  =    0.863    wigner-seitz radius (au A)                               
   ENMAX  =  400.000; ENMIN  =  300.000 eV                                                          
   ICORE  =        2    local potential                                                             
   LCOR   =        T    correct aug charges                                                         
   LPAW   =        T    paw PP                                                                      
   EAUG   =  644.873                                                                                
   DEXC   =    0.000                                                                                
   RMAX   =    1.529    core radius for proj-oper                                                   
   RAUG   =    1.300    factor for augmentation sphere                                              
   RDEP   =    1.501    radius for radial grids                                                     
   RDEPT  =    1.300    core radius for aug-charge                                                  
                                                                                                    
   Atomic configuration                                                                             
    4 entries                                                                                       
     n  l   j            E        occ.                                                              
     1  0  0.50      -273.3789   2.0000                                                             
     2  0  0.50       -13.7508   2.0000                                                             
     2  1  0.50        -5.2854   2.0000                                                             
     3  2  1.50        -5.4423   0.0000                                                             
   Description                                                                                      
     l       E           TYP  RCUT    TYP  RCUT                                                     
     0    -13.7508458     23  1.200                                                                 
     0     -8.2022199     23  1.200                                                                 
     1     -5.2854383     23  1.500                                                                 
     1     34.0145650     23  1.500                                                                 
     2     -5.4423304      7  1.500                                                                 
  local pseudopotential read in
  partial core-charges read in
  partial kinetic energy density read in
  atomic valenz-charges read in
  non local Contribution for L=           0  read in
    real space projection operators read in
  non local Contribution for L=           0  read in
    real space projection operators read in
  non local Contribution for L=           1  read in
    real space projection operators read in
  non local Contribution for L=           1  read in
    real space projection operators read in
    PAW grid and wavefunctions read in

   number of l-projection  operators is LMAX  =           4
   number of lm-projection operators is LMMAX =           8

 POTCAR:    PAW_PBE O 08Apr2002                   
   SHA256 =  818f92134a0a090dccd8ba1447fa70422a3b330e708bb4f08108d8ae51209ddf O/POTCAR              
   COPYR  = (c) Copyright 08Apr2002 Georg Kresse                                                    
   COPYR  = This file is part of the software VASP. Any use, copying, and all other rights are regul
   COPYR  = If you do not have a valid VASP license, you may not use, copy or distribute this file. 
   VRHFIN =O: s2p4                                                                                  
   LEXCH  = PE                                                                                      
   EATOM  =   432.3788 eV,   31.7789 Ry                                                             
                                                                                                    
   TITEL  = PAW_PBE O 08Apr2002                                                                     
   LULTRA =        F    use ultrasoft PP ?                                                          
   IUNSCR =        1    unscreen: 0-lin 1-nonlin 2-no                                               
   RPACOR =    1.200    partial core radius                                                         
   POMASS =   16.000; ZVAL   =    6.000    mass and valenz                                          
   RCORE  =    1.520    outmost cutoff radius                                                       
   RWIGS  =    1.550; RWIGS  =    0.820    wigner-seitz radius (au A)                               
   ENMAX  =  400.000; ENMIN  =  300.000 eV                                                          
   ICORE  =        2    local potential                                                             
   LCOR   =        T    correct aug charges                                                         
   LPAW   =        T    paw PP                                                                      
   EAUG   =  605.392                                                                                
   DEXC   =    0.000                                                                                
   RMAX   =    1.553    core radius for proj-oper                                                   
   RAUG   =    1.300    factor for augmentation sphere                                              
   RDEP   =    1.550    radius for radial grids                                                     
   RDEPT  =    1.329    core radius for aug-charge                                                  
                                                                                                    
   Atomic configuration                                                                             
    4 entries                                                                                       
     n  l   j            E        occ.                                                              
     1  0  0.50      -514.6923   2.0000                                                             
     2  0  0.50       -23.9615   2.0000                                                             
     2  1  0.50        -9.0305   4.0000                                                             
     3  2  1.50        -9.5241   0.0000                                                             
   Description                                                                                      
     l       E           TYP  RCUT    TYP  RCUT                                                     
     0    -23.9615318     23  1.200                                                                 
     0     -9.5240782     23  1.200                                                                 
     1     -9.0304911     23  1.520                                                                 
     1      8.1634956     23  1.520                                                                 
     2     -9.5240782      7  1.500                                                                 
  local pseudopotential read in
  partial core-charges read in
  partial kinetic energy density read in
  kinetic energy density of atom read in
  atomic valenz-charges read in
  non local Contribution for L=           0  read in
    real space projection operators read in
  non local Contribution for L=           0  read in
    real space projection operators read in
  non local Contribution for L=           1  read in
    real space projection operators read in
  non local Contribution for L=           1  read in
    real space projection operators read in
    PAW grid and wavefunctions read in

   number of l-projection  operators is LMAX  =           4
   number of lm-projection operators is LMMAX =           8

 POTCAR:    PAW_PBE Mg_pv 13Apr2007               
   SHA256 =  f474ac0dd33840b9ae76c01d57fea79fdf77cdfbb07d5ade72c65f83c709b62b Mg_pv/POTCAR          
   COPYR  = (c) Copyright 13Apr2007 Georg Kresse                                                    
   COPYR  = This file is part of the software VASP. Any use, copying, and all other rights are regul
   COPYR  = If you do not have a valid VASP license, you may not use, copy or distribute this file. 
   VRHFIN =Mg: p6s2                                                                                 
   LEXCH  = PE                                                                                      
   EATOM  =  1056.7344 eV,   77.6678 Ry                                                             
                                                                                                    
   TITEL  = PAW_PBE Mg_pv 13Apr2007                                                                 
   LULTRA =        F    use ultrasoft PP ?                                                          
   IUNSCR =        1    unscreen: 0-lin 1-nonlin 2-no                                               
   RPACOR =    1.500    partial core radius                                                         
   POMASS =   24.305; ZVAL   =    8.000    mass and valenz                                          
   RCORE  =    2.000    outmost cutoff radius                                                       
   RWIGS  =    2.000; RWIGS  =    1.058    wigner-seitz radius (au A)                               
   ENMAX  =  403.929; ENMIN  =  302.947 eV                                                          
   RCLOC  =    1.506    cutoff for local pot                                                        
   LCOR   =        T    correct aug charges                                                         
   LPAW   =        T    paw PP                                                                      
   EAUG   =  758.780                                                                                
   DEXC   =    0.000                                                                                
   RMAX   =    2.045    core radius for proj-oper                                                   
   RAUG   =    1.300    factor for augmentation sphere                                              
   RDEP   =    2.025    radius for radial grids                                                     
   RDEPT  =    1.557    core radius for aug-charge                                                  
                                                                                                    
   Atomic configuration                                                                             
    5 entries                                                                                       
     n  l   j            E        occ.                                                              
     1  0  0.50     -1259.6230   2.0000                                                             
     2  0  0.50       -79.8442   2.0000                                                             
     2  1  1.50       -46.6121   6.0000                                                             
     3  0  0.50        -4.7055   2.0000                                                             
     3  2  1.50        -1.3606   0.0000                                                             
   Description                                                                                      
     l       E           TYP  RCUT    TYP  RCUT                                                     
     1    -46.6121073     23  1.600                                                                 
     1      2.7211652     23  1.600                                                                 
     0     -4.7054661     23  2.000                                                                 
     0     61.2262170     23  2.000                                                                 
     2     -1.3605826     23  2.000                                                                 
  local pseudopotential read in
  partial core-charges read in
  partial kinetic energy density read in
  atomic valenz-charges read in
  non local Contribution for L=           1  read in
    real space projection operators read in
  non local Contribution for L=           1  read in
    real space projection operators read in
  non local Contribution for L=           0  read in
    real space projection operators read in
  non local Contribution for L=           0  read in
    real space projection operators read in
  non local Contribution for L=           2  read in
    real space projection operators read in
    PAW grid and wavefunctions read in

   number of l-projection  operators is LMAX  =           5
   number of lm-projection operators is LMMAX =          13

 POTCAR:    PAW_PBE O 08Apr2002                   
   SHA256 =  818f92134a0a090dccd8ba1447fa70422a3b330e708bb4f08108d8ae51209ddf O/POTCAR              
   COPYR  = (c) Copyright 08Apr2002 Georg Kresse                                                    
   COPYR  = This file is part of the software VASP. Any use, copying, and all other rights are regul
   COPYR  = If you do not have a valid VASP license, you may not use, copy or distribute this file. 
   VRHFIN =O: s2p4                                                                                  
   LEXCH  = PE                                                                                      
   EATOM  =   432.3788 eV,   31.7789 Ry                                                             
                                                                                                    
   TITEL  = PAW_PBE O 08Apr2002                                                                     
   LULTRA =        F    use ultrasoft PP ?                                                          
   IUNSCR =        1    unscreen: 0-lin 1-nonlin 2-no                                               
   RPACOR =    1.200    partial core radius                                                         
   POMASS =   16.000; ZVAL   =    6.000    mass and valenz                                          
   RCORE  =    1.520    outmost cutoff radius                                                       
   RWIGS  =    1.550; RWIGS  =    0.820    wigner-seitz radius (au A)                               
   ENMAX  =  400.000; ENMIN  =  300.000 eV                                                          
   ICORE  =        2    local potential                                                             
   LCOR   =        T    correct aug charges                                                         
   LPAW   =        T    paw PP                                                                      
   EAUG   =  605.392                                                                                
   DEXC   =    0.000                                                                                
   RMAX   =    1.553    core radius for proj-oper                                                   
   RAUG   =    1.300    factor for augmentation sphere                                              
   RDEP   =    1.550    radius for radial grids                                                     
   RDEPT  =    1.329    core radius for aug-charge                                                  
                                                                                                    
   Atomic configuration                                                                             
    4 entries                                                                                       
     n  l   j            E        occ.                                                              
     1  0  0.50      -514.6923   2.0000                                                             
     2  0  0.50       -23.9615   2.0000                                                             
     2  1  0.50        -9.0305   4.0000                                                             
     3  2  1.50        -9.5241   0.0000                                                             
   Description                                                                                      
     l       E           TYP  RCUT    TYP  RCUT                                                     
     0    -23.9615318     23  1.200                                                                 
     0     -9.5240782     23  1.200                                                                 
     1     -9.0304911     23  1.520                                                                 
     1      8.1634956     23  1.520                                                                 
     2     -9.5240782      7  1.500                                                                 
  local pseudopotential read in
  partial core-charges read in
  partial kinetic energy density read in
  kinetic energy density of atom read in
  atomic valenz-charges read in
  non local Contribution for L=           0  read in
    real space projection operators read in
  non local Contribution for L=           0  read in
    real space projection operators read in
  non local Contribution for L=           1  read in
    real space projection operators read in
  non local Contribution for L=           1  read in
    real space projection operators read in
    PAW grid and wavefunctions read in

   number of l-projection  operators is LMAX  =           4
   number of lm-projection operators is LMMAX =           8

 -----------------------------------------------------------------------------
|                                                                             |
|               ----> ADVICE to this user running VASP <----                  |
|                                                                             |
|     You have a (more or less) 'large supercell' and for larger cells it     |
|     might be more efficient to use real-space projection operators.         |
|     Therefore, try LREAL= Auto in the INCAR file.                           |
|     Mind: For very accurate calculation, you might also keep the            |
|     reciprocal projection scheme (i.e. LREAL=.FALSE.).                      |
|                                                                             |
 -----------------------------------------------------------------------------

  PAW_PBE C 08Apr2002                   :
 energy of atom  1       EATOM= -147.1560
 kinetic energy error for atom=    0.0057 (will be added to EATOM!!)
  PAW_PBE O 08Apr2002                   :
 energy of atom  2       EATOM= -432.3788
 kinetic energy error for atom=    0.0168 (will be added to EATOM!!)
  PAW_PBE Mg_pv 13Apr2007               :
 energy of atom  3       EATOM=-1056.7344
 kinetic energy error for atom=    0.0221 (will be added to EATOM!!)
  PAW_PBE O 08Apr2002                   :
 energy of atom  4       EATOM= -432.3788
 kinetic energy error for atom=    0.0168 (will be added to EATOM!!)


 POSCAR:  C  O Mg  O
  positions in direct lattice
  No initial velocities read in
 exchange correlation table for  LEXCH =        8
   RHO(1)=    0.500       N(1)  =     2000
   RHO(2)=  100.500       N(2)  =     4000



--------------------------------------------------------------------------------------------------------


 ion  position               nearest neighbor table
   1  0.500  0.500  0.764-   2 1.14
   2  0.500  0.500  0.818-   1 1.14
   3  0.250  0.000  0.351-  35 2.12  37 2.12  38 2.12  45 2.12  54 2.12
   4  0.500  0.250  0.351-  36 2.12  37 2.12  38 2.12  46 2.12  53 2.12
   5  0.250  0.250  0.450-  37 2.12  36 2.12  35 2.12  43 2.12  52 2.12  41 2.12
   6  0.500  0.000  0.450-  38 2.12  36 2.12  35 2.12  44 2.12  51 2.12  42 2.12
   7  0.250  0.000  0.550-  42 2.12  41 2.12  49 2.12  58 2.12  35 2.13  39 2.15
   8  0.500  0.251  0.550-  50 2.11  41 2.12  57 2.12  42 2.12  36 2.13  40 2.15
   9  0.250  0.250  0.648-  41 2.10  39 2.11  56 2.11  47 2.12  40 2.12
  10  0.500  0.000  0.648-  42 2.10  40 2.11  48 2.11  39 2.12  55 2.12
  11  0.250  0.500  0.351-  43 2.12  37 2.12  45 2.12  46 2.12  62 2.12
  12  0.500  0.750  0.351-  44 2.12  38 2.12  45 2.12  46 2.12  61 2.12
  13  0.250  0.750  0.450-  45 2.12  43 2.12  44 2.12  35 2.12  60 2.12  49 2.12
  14  0.500  0.500  0.450-  46 2.12  43 2.12  44 2.12  36 2.12  59 2.12  50 2.13
  15  0.251  0.500  0.550-  50 2.11  49 2.12  41 2.12  66 2.12  43 2.13  47 2.15
  16  0.500  0.749  0.550-  50 2.11  49 2.12  65 2.12  42 2.12  44 2.13  48 2.15
  17  0.250  0.750  0.648-  49 2.10  39 2.11  64 2.11  47 2.12  48 2.12
  18  0.500  0.500  0.651-  40 2.13  47 2.13  48 2.13  63 2.13  50 2.15
  19  0.750  0.000  0.351-  51 2.12  38 2.12  53 2.12  54 2.12  61 2.12
  20  0.000  0.250  0.351-  52 2.12  37 2.12  53 2.12  54 2.12  62 2.12
  21  0.750  0.250  0.450-  53 2.12  51 2.12  52 2.12  36 2.12  59 2.12  57 2.12
  22  0.000  0.000  0.450-  54 2.12  51 2.12  52 2.12  35 2.12  60 2.12  58 2.12
  23  0.750  0.000  0.550-  42 2.12  57 2.12  65 2.12  58 2.12  51 2.13  55 2.15
  24  0.000  0.250  0.550-  66 2.12  57 2.12  41 2.12  58 2.12  52 2.13  56 2.15
  25  0.750  0.250  0.648-  57 2.10  56 2.11  55 2.11  40 2.12  63 2.12
  26  0.000  0.000  0.648-  58 2.11  55 2.11  56 2.11  39 2.11  64 2.11
  27  0.750  0.500  0.351-  59 2.12  53 2.12  46 2.12  61 2.12  62 2.12
  28  0.000  0.750  0.351-  60 2.12  54 2.12  45 2.12  61 2.12  62 2.12
  29  0.750  0.750  0.450-  61 2.12  51 2.12  59 2.12  60 2.12  44 2.12  65 2.12
  30  0.000  0.500  0.450-  62 2.12  52 2.12  59 2.12  60 2.12  43 2.12  66 2.12
  31  0.749  0.500  0.550-  50 2.11  57 2.12  65 2.12  66 2.12  59 2.13  63 2.15
  32  0.000  0.750  0.550-  66 2.12  65 2.12  49 2.12  58 2.12  60 2.13  64 2.15
  33  0.750  0.750  0.648-  65 2.10  64 2.11  55 2.11  48 2.12  63 2.12
  34  0.000  0.500  0.648-  66 2.10  63 2.11  47 2.11  64 2.12  56 2.12
  35  0.250  0.000  0.450-   3 2.12   5 2.12   6 2.12  13 2.12  22 2.12   7 2.13
  36  0.500  0.250  0.450-   4 2.12   5 2.12   6 2.12  14 2.12  21 2.12   8 2.13
  37  0.250  0.250  0.351-   5 2.12   4 2.12   3 2.12  11 2.12  20 2.12
  38  0.500  0.000  0.351-   6 2.12   4 2.12   3 2.12  12 2.12  19 2.12
  39  0.250  0.000  0.651-   9 2.11  17 2.11  26 2.11  10 2.12   7 2.15
  40  0.500  0.249  0.651-  10 2.11   9 2.12  25 2.12  18 2.13   8 2.15
  41  0.250  0.250  0.550-   9 2.10   7 2.12  24 2.12  15 2.12   8 2.12   5 2.12
  42  0.500  0.000  0.550-  10 2.10   7 2.12  23 2.12   6 2.12  16 2.12   8 2.12
  43  0.250  0.500  0.450-  11 2.12   5 2.12  13 2.12  14 2.12  30 2.12  15 2.13
  44  0.500  0.750  0.450-  12 2.12   6 2.12  13 2.12  14 2.12  29 2.12  16 2.13
  45  0.250  0.750  0.351-  13 2.12  11 2.12  12 2.12   3 2.12  28 2.12
  46  0.500  0.500  0.351-  14 2.12  11 2.12  12 2.12   4 2.12  27 2.12
  47  0.249  0.500  0.651-  34 2.11  17 2.12   9 2.12  18 2.13  15 2.15
  48  0.500  0.751  0.651-  10 2.11  17 2.12  33 2.12  18 2.13  16 2.15
  49  0.250  0.750  0.550-  17 2.10   7 2.12  32 2.12  15 2.12  16 2.12  13 2.12
  50  0.500  0.500  0.550-   8 2.11  15 2.11  16 2.11  31 2.11  14 2.13  18 2.15
  51  0.750  0.000  0.450-  19 2.12   6 2.12  21 2.12  22 2.12  29 2.12  23 2.13
  52  0.000  0.250  0.450-  20 2.12   5 2.12  21 2.12  22 2.12  30 2.12  24 2.13
  53  0.750  0.250  0.351-  21 2.12  19 2.12  20 2.12   4 2.12  27 2.12
  54  0.000  0.000  0.351-  22 2.12  19 2.12  20 2.12   3 2.12  28 2.12
  55  0.750  0.000  0.651-  25 2.11  33 2.11  26 2.11  10 2.12  23 2.15
  56  0.000  0.250  0.651-   9 2.11  25 2.11  26 2.11  34 2.12  24 2.15
  57  0.750  0.250  0.550-  25 2.10  24 2.12  23 2.12   8 2.12  31 2.12  21 2.12
  58  0.000  0.000  0.550-  26 2.11  23 2.12  24 2.12   7 2.12  32 2.12  22 2.12
  59  0.750  0.500  0.450-  27 2.12  21 2.12  14 2.12  29 2.12  30 2.12  31 2.13
  60  0.000  0.750  0.450-  28 2.12  22 2.12  13 2.12  29 2.12  30 2.12  32 2.13
  61  0.750  0.750  0.351-  29 2.12  19 2.12  27 2.12  28 2.12  12 2.12
  62  0.000  0.500  0.351-  30 2.12  20 2.12  27 2.12  28 2.12  11 2.12
  63  0.751  0.500  0.651-  34 2.11  33 2.12  25 2.12  18 2.13  31 2.15
  64  0.000  0.750  0.651-  17 2.11  33 2.11  26 2.11  34 2.12  32 2.15
  65  0.750  0.750  0.550-  33 2.10  32 2.12  23 2.12  16 2.12  31 2.12  29 2.12
  66  0.000  0.500  0.550-  34 2.10  32 2.12  24 2.12  30 2.12  15 2.12  31 2.12


IMPORTANT INFORMATION: All symmetrisations will be switched off!
NOSYMM: (Re-)initialisation of all symmetry stuff for point group C_1.


----------------------------------------------------------------------------------------

                                     Primitive cell                                     

  volume of cell :    1530.6606

  direct lattice vectors                    reciprocal lattice vectors
     8.467142631  0.000000000  0.000000000     0.118103597  0.000000000  0.000000000
     0.000000000  8.467142631  0.000000000     0.000000000  0.118103597  0.000000000
     0.000000000  0.000000000 21.350356973     0.000000000  0.000000000  0.046837624

  length of vectors
     8.467142631  8.467142631 21.350356973     0.118103597  0.118103597  0.046837624

  position of ions in fractional coordinates (direct lattice)
     0.500000000  0.500000000  0.764079771
     0.500000000  0.500000000  0.817635679
     0.250000000  0.000000000  0.351282183
     0.500000000  0.250000000  0.351282183
     0.250000000  0.250000000  0.450427394
     0.500000000  0.000000000  0.450427394
     0.250130675  0.000000000  0.550051025
     0.500000000  0.250549374  0.550337361
     0.249664725  0.249664725  0.648233062
     0.500000000  0.000000000  0.648327315
     0.250000000  0.500000000  0.351282183
     0.500000000  0.750000000  0.351282183
     0.250000000  0.750000000  0.450427394
     0.500000000  0.500000000  0.450427394
     0.250549374  0.500000000  0.550337361
     0.500000000  0.749450626  0.550337361
     0.249664725  0.750335275  0.648233062
     0.500000000  0.500000000  0.651025884
     0.750000000  0.000000000  0.351282183
     0.000000000  0.250000000  0.351282183
     0.750000000  0.250000000  0.450427394
     0.000000000  0.000000000  0.450427394
     0.749869325  0.000000000  0.550051025
     0.000000000  0.250130675  0.550051025
     0.750335275  0.249664725  0.648233062
     0.000000000  0.000000000  0.648316240
     0.750000000  0.500000000  0.351282183
     0.000000000  0.750000000  0.351282183
     0.750000000  0.750000000  0.450427394
     0.000000000  0.500000000  0.450427394
     0.749450626  0.500000000  0.550337361
     0.000000000  0.749869325  0.550051025
     0.750335275  0.750335275  0.648233062
     0.000000000  0.500000000  0.648327315
     0.250000000  0.000000000  0.450427394
     0.500000000  0.250000000  0.450427394
     0.250000000  0.250000000  0.351282183
     0.500000000  0.000000000  0.351282183
     0.249675969  0.000000000  0.650693757
     0.500000000  0.248616374  0.650874873
     0.249995626  0.249995626  0.549815020
     0.500000000  0.000000000  0.549743658
     0.250000000  0.500000000  0.450427394
     0.500000000  0.750000000  0.450427394
     0.250000000  0.750000000  0.351282183
     0.500000000  0.500000000  0.351282183
     0.248616374  0.500000000  0.650874873
     0.500000000  0.751383626  0.650874873
     0.249995626  0.750004374  0.549815020
     0.500000000  0.500000000  0.550361408
     0.750000000  0.000000000  0.450427394
     0.000000000  0.250000000  0.450427394
     0.750000000  0.250000000  0.351282183
     0.000000000  0.000000000  0.351282183
     0.750324031  0.000000000  0.650693757
     0.000000000  0.249675969  0.650693757
     0.750004374  0.249995626  0.549815020
     0.000000000  0.000000000  0.549710877
     0.750000000  0.500000000  0.450427394
     0.000000000  0.750000000  0.450427394
     0.750000000  0.750000000  0.351282183
     0.000000000  0.500000000  0.351282183
     0.751383626  0.500000000  0.650874873
     0.000000000  0.750324031  0.650693757
     0.750004374  0.750004374  0.549815020
     0.000000000  0.500000000  0.549743658

  ion indices of the primitive-cell ions
   primitive index   ion index
                 1           1
                 2           2
                 3           3
                 4           4
                 5           5
                 6           6
                 7           7
                 8           8
                 9           9
                10          10
                11          11
                12          12
                13          13
                14          14
                15          15
                16          16
                17          17
                18          18
                19          19
                20          20
                21          21
                22          22
                23          23
                24          24
                25          25
                26          26
                27          27
                28          28
                29          29
                30          30
                31          31
                32          32
                33          33
                34          34
                35          35
                36          36
                37          37
                38          38
                39          39
                40          40
                41          41
                42          42
                43          43
                44          44
                45          45
                46          46
                47          47
                48          48
                49          49
                50          50
                51          51
                52          52
                53          53
                54          54
                55          55
                56          56
                57          57
                58          58
                59          59
                60          60
                61          61
                62          62
                63          63
                64          64
                65          65
                66          66

----------------------------------------------------------------------------------------



 KPOINTS: pymatgen v2020.8.13 with grid density = 

Automatic generation of k-mesh.
 Grid dimensions read from file:
 generate k-points for:    2    2    1

 Generating k-lattice:

  Cartesian coordinates                     Fractional coordinates (reciprocal lattice)
     0.059051798  0.000000000  0.000000000     0.500000000  0.000000000  0.000000000
     0.000000000  0.059051798  0.000000000     0.000000000  0.500000000  0.000000000
     0.000000000  0.000000000  0.046837624     0.000000000  0.000000000  1.000000000

  Length of vectors
     0.059051798  0.059051798  0.046837624

  Shift w.r.t. Gamma in fractional coordinates (k-lattice)
     0.000000000  0.000000000  0.000000000

 
 Subroutine IBZKPT returns following result:
 ===========================================
 
 Found      4 irreducible k-points:
 
 Following reciprocal coordinates:
            Coordinates               Weight
  0.000000  0.000000  0.000000      1.000000
  0.500000  0.000000  0.000000      1.000000
  0.000000  0.500000  0.000000      1.000000
  0.500000  0.500000  0.000000      1.000000
 
 Following cartesian coordinates:
            Coordinates               Weight
  0.000000  0.000000  0.000000      1.000000
  0.059052  0.000000  0.000000      1.000000
  0.000000  0.059052  0.000000      1.000000
  0.059052  0.059052  0.000000      1.000000
 
 
 Subroutine IBZKPT_HF returns following result:
 ==============================================
 
 Found      4 k-points in 1st BZ
 the following      4 k-points will be used (e.g. in the exchange kernel)
 Following reciprocal coordinates:   # in IRBZ
  0.000000  0.000000  0.000000    0.25000000   1 t-inv F
  0.500000  0.000000  0.000000    0.25000000   2 t-inv F
  0.000000  0.500000  0.000000    0.25000000   3 t-inv F
  0.500000  0.500000  0.000000    0.25000000   4 t-inv F


--------------------------------------------------------------------------------------------------------




 Dimension of arrays:
   k-points           NKPTS =      4   k-points in BZ     NKDIM =      4   number of bands    NBANDS=    320
   number of dos      NEDOS =    301   number of ions     NIONS =     66
   non local maximal  LDIM  =      5   non local SUM 2l+1 LMDIM =     13
   total plane-waves  NPLWV = 882000
   max r-space proj   IRMAX =      1   max aug-charges    IRDMAX=  11554
   dimension x,y,z NGX =    70 NGY =   70 NGZ =  180
   dimension x,y,z NGXF=   140 NGYF=  140 NGZF=  360
   support grid    NGXF=   140 NGYF=  140 NGZF=  360
   ions per type =               1   1  32  32
   NGX,Y,Z   is equivalent  to a cutoff of  13.74, 13.74, 14.02 a.u.
   NGXF,Y,Z  is equivalent  to a cutoff of  27.49, 27.49, 28.03 a.u.

 SYSTEM =  MgO-rocksalt                            
 POSCAR =   C  O Mg  O                             

 Startparameter for this run:
   NWRITE =      2    write-flag & timer
   PREC   = accura    normal or accurate (medium, high low for compatibility)
   ISTART =      0    job   : 0-new  1-cont  2-samecut
   ICHARG =      2    charge: 1-file 2-atom 10-const
   ISPIN  =      1    spin polarized calculation?
   LNONCOLLINEAR =      F non collinear calculations
   LSORBIT =      F    spin-orbit coupling
   INIWAV =      1    electr: 0-lowe 1-rand  2-diag
   LASPH  =      T    aspherical Exc in radial PAW
 Electronic Relaxation 1
   ENCUT  =  600.0 eV  44.10 Ry    6.64 a.u.  16.91 16.91 42.64*2*pi/ulx,y,z
   ENINI  =  600.0     initial cutoff
   ENAUG  =  758.8 eV  augmentation charge cutoff
   NELM   =    200;   NELMIN=  8; NELMDL= -5     # of ELM steps 
   EDIFF  = 0.1E-07   stopping-criterion for ELM
   LREAL  =      F    real-space projection
   NLSPLINE    = F    spline interpolate recip. space projectors
   LCOMPAT=      F    compatible to vasp.4.4
   GGA_COMPAT  = T    GGA compatible to vasp.4.4-vasp.4.6
   LMAXPAW     = -100 max onsite density
   LMAXMIX     =    2 max onsite mixed and CHGCAR
   VOSKOWN=      0    Vosko Wilk Nusair interpolation
   ROPT   =    0.00000   0.00000   0.00000   0.00000
 Ionic relaxation
   EDIFFG = 0.1E-06   stopping-criterion for IOM
   NSW    =    829    number of steps for IOM
   NBLOCK =      1;   KBLOCK =    829    inner block; outer block 
   IBRION =      5    ionic relax: 0-MD 1-quasi-New 2-CG
   NFREE  =      2    steps in history (QN), initial steepest desc. (CG)
   ISIF   =      2    stress and relaxation
   IWAVPR =     11    prediction:  0-non 1-charg 2-wave 3-comb
   ISYM   =      0    0-nonsym 1-usesym 2-fastsym
   LCORR  =      T    Harris-Foulkes like correction to forces

   POTIM  = 0.0100    time-step for ionic-motion
   TEIN   =    0.0    initial temperature
   TEBEG  =    0.0;   TEEND  =   0.0 temperature during run
   SMASS  =  -3.00    Nose mass-parameter (am)
   estimated Nose-frequenzy (Omega)   =  0.10E-29 period in steps = 0.63E+48 mass=  -0.164E-26a.u.
   SCALEE = 1.0000    scale energy and forces
   NPACO  =    256;   APACO  = 10.0  distance and # of slots for P.C.
   PSTRESS=    0.0 pullay stress

  Mass of Ions in am
   POMASS =  12.01 16.00 24.30 16.00
  Ionic Valenz
   ZVAL   =   4.00  6.00  8.00  6.00
  Atomic Wigner-Seitz radii
   RWIGS  =  -1.00 -1.00 -1.00 -1.00
  virtual crystal weights 
   VCA    =   1.00  1.00  1.00  1.00
   NELECT =     458.0000    total number of electrons
   NUPDOWN=      -1.0000    fix difference up-down

 DOS related values:
   EMIN   =  10.00;   EMAX   =-10.00  energy-range for DOS
   EFERMI =   0.00
   ISMEAR =     0;   SIGMA  =   0.05  broadening in eV -4-tet -1-fermi 0-gaus

 Electronic relaxation 2 (details)
   IALGO  =     58    algorithm
   LDIAG  =      T    sub-space diagonalisation (order eigenvalues)
   LSUBROT=      F    optimize rotation matrix (better conditioning)
   TURBO    =      0    0=normal 1=particle mesh
   IRESTART =      0    0=no restart 2=restart with 2 vectors
   NREBOOT  =      0    no. of reboots
   NMIN     =      0    reboot dimension
   EREF     =   0.00    reference energy to select bands
   IMIX   =      4    mixing-type and parameters
     AMIX     =   0.40;   BMIX     =  1.00
     AMIX_MAG =   1.60;   BMIX_MAG =  1.00
     AMIN     =   0.10
     WC   =   100.;   INIMIX=   1;  MIXPRE=   1;  MAXMIX= -45

 Intra band minimization:
   WEIMIN = 0.0010     energy-eigenvalue tresh-hold
   EBREAK =  0.78E-11  absolut break condition
   DEPER  =   0.30     relativ break condition  

   TIME   =   0.40     timestep for ELM

  volume/ion in A,a.u.               =      23.19       156.51
  Fermi-wavevector in a.u.,A,eV,Ry     =   1.094974  2.069200 16.312942  1.198967
  Thomas-Fermi vector in A             =   2.231289

 Write flags
   LWAVE        =      F    write WAVECAR
   LDOWNSAMPLE  =      F    k-point downsampling of WAVECAR
   LCHARG       =      F    write CHGCAR
   LVTOT        =      F    write LOCPOT, total local potential
   LVHAR        =      F    write LOCPOT, Hartree potential only
   LELF         =      F    write electronic localiz. function (ELF)
   LORBIT       =      0    0 simple, 1 ext, 2 COOP (PROOUT), +10 PAW based schemes


 Dipole corrections
   LMONO  =      F    monopole corrections only (constant potential shift)
   LDIPOL =      T    correct potential (dipole corrections)
   IDIPOL =      3    1-x, 2-y, 3-z, 4-all directions 
   EPSILON=  1.0000000 bulk dielectric constant

 Exchange correlation treatment:
   GGA     =    PE    GGA type
   LEXCH   =     8    internal setting for exchange type
   LIBXC   =     F    Libxc                    
   VOSKOWN =     0    Vosko Wilk Nusair interpolation
   LHFCALC =     F    Hartree Fock is set to
   LHFONE  =     F    Hartree Fock one center treatment
   AEXX    =    0.0000 exact exchange contribution

 Linear response parameters
   LEPSILON=     F    determine dielectric tensor
   LRPA    =     F    only Hartree local field effects (RPA)
   LNABLA  =     F    use nabla operator in PAW spheres
   LVEL    =     F    velocity operator in full k-point grid
   CSHIFT  =0.1000    complex shift for real part using Kramers Kronig
   OMEGAMAX=  -1.0    maximum frequency
   DEG_THRESHOLD= 0.2000000E-02 threshold for treating states as degnerate
   RTIME   =   -0.100 relaxation time in fs
  (WPLASMAI=    0.000 imaginary part of plasma frequency in eV, 0.658/RTIME)
   DFIELD  = 0.0000000 0.0000000 0.0000000 field for delta impulse in time

  Optional k-point grid parameters
   LKPOINTS_OPT  =     F    use optional k-point grid
   KPOINTS_OPT_MODE=     1    mode for optional k-point grid

 Orbital magnetization related:
   ORBITALMAG=     F  switch on orbital magnetization
   LCHIMAG   =     F  perturbation theory with respect to B field
   DQ        =  0.001000  dq finite difference perturbation B field
   LLRAUG    =     F  two centre corrections for induced B field



--------------------------------------------------------------------------------------------------------


 finite differences
   using selective dynamics as specified on POSCAR
 charge density and potential will be updated during run
 non-spin polarized calculation
 Conjugate gradient for all bands (Freysoldt, et al. PRB 79, 241103 (2009))
 preconditioned conjugated gradient                                        
 perform sub-space diagonalisation
    before iterative eigenvector-optimisation
 modified Broyden-mixing scheme, WC =      100.0
 initial mixing is a Kerker type mixing with AMIX =  0.4000 and BMIX =      1.0000
 Hartree-type preconditioning will be used
 using additional bands           91
 reciprocal scheme for non local part
 use partial core corrections
 no Harris-corrections to forces 
 use gradient corrections 
 use of overlap-Matrix (Vanderbilt PP)
 Gauss-broadening in eV      SIGMA  =   0.05


--------------------------------------------------------------------------------------------------------


  energy-cutoff  :      600.00
  volume of cell :     1530.66
      direct lattice vectors                 reciprocal lattice vectors
     8.467142631  0.000000000  0.000000000     0.118103597  0.000000000  0.000000000
     0.000000000  8.467142631  0.000000000     0.000000000  0.118103597  0.000000000
     0.000000000  0.000000000 21.350356973     0.000000000  0.000000000  0.046837624

  length of vectors
     8.467142631  8.467142631 21.350356973     0.118103597  0.118103597  0.046837624



 k-points in units of 2pi/SCALE and weight: pymatgen v2020.8.13 with grid density = 
   0.00000000  0.00000000  0.00000000       0.250
   0.05905180  0.00000000  0.00000000       0.250
   0.00000000  0.05905180  0.00000000       0.250
   0.05905180  0.05905180  0.00000000       0.250

 k-points in reciprocal lattice and weights: pymatgen v2020.8.13 with grid density = 
   0.00000000  0.00000000  0.00000000       0.250
   0.50000000  0.00000000  0.00000000       0.250
   0.00000000  0.50000000  0.00000000       0.250
   0.50000000  0.50000000  0.00000000       0.250

 position of ions in fractional coordinates (direct lattice) 
   0.50000000  0.50000000  0.76407977
   0.50000000  0.50000000  0.81763568
   0.25000000  0.00000000  0.35128218
   0.50000000  0.25000000  0.35128218
   0.25000000  0.25000000  0.45042739
   0.50000000  0.00000000  0.45042739
   0.25013068  0.00000000  0.55005102
   0.50000000  0.25054937  0.55033736
   0.24966473  0.24966473  0.64823306
   0.50000000  0.00000000  0.64832732
   0.25000000  0.50000000  0.35128218
   0.50000000  0.75000000  0.35128218
   0.25000000  0.75000000  0.45042739
   0.50000000  0.50000000  0.45042739
   0.25054937  0.50000000  0.55033736
   0.50000000  0.74945063  0.55033736
   0.24966473  0.75033527  0.64823306
   0.50000000  0.50000000  0.65102588
   0.75000000  0.00000000  0.35128218
   0.00000000  0.25000000  0.35128218
   0.75000000  0.25000000  0.45042739
   0.00000000  0.00000000  0.45042739
   0.74986932  0.00000000  0.55005102
   0.00000000  0.25013068  0.55005102
   0.75033527  0.24966473  0.64823306
   0.00000000  0.00000000  0.64831624
   0.75000000  0.50000000  0.35128218
   0.00000000  0.75000000  0.35128218
   0.75000000  0.75000000  0.45042739
   0.00000000  0.50000000  0.45042739
   0.74945063  0.50000000  0.55033736
   0.00000000  0.74986932  0.55005102
   0.75033527  0.75033527  0.64823306
   0.00000000  0.50000000  0.64832732
   0.25000000  0.00000000  0.45042739
   0.50000000  0.25000000  0.45042739
   0.25000000  0.25000000  0.35128218
   0.50000000  0.00000000  0.35128218
   0.24967597  0.00000000  0.65069376
   0.50000000  0.24861637  0.65087487
   0.24999563  0.24999563  0.54981502
   0.50000000  0.00000000  0.54974366
   0.25000000  0.50000000  0.45042739
   0.50000000  0.75000000  0.45042739
   0.25000000  0.75000000  0.35128218
   0.50000000  0.50000000  0.35128218
   0.24861637  0.50000000  0.65087487
   0.50000000  0.75138363  0.65087487
   0.24999563  0.75000437  0.54981502
   0.50000000  0.50000000  0.55036141
   0.75000000  0.00000000  0.45042739
   0.00000000  0.25000000  0.45042739
   0.75000000  0.25000000  0.35128218
   0.00000000  0.00000000  0.35128218
   0.75032403  0.00000000  0.65069376
   0.00000000  0.24967597  0.65069376
   0.75000437  0.24999563  0.54981502
   0.00000000  0.00000000  0.54971088
   0.75000000  0.50000000  0.45042739
   0.00000000  0.75000000  0.45042739
   0.75000000  0.75000000  0.35128218
   0.00000000  0.50000000  0.35128218
   0.75138363  0.50000000  0.65087487
   0.00000000  0.75032403  0.65069376
   0.75000437  0.75000437  0.54981502
   0.00000000  0.50000000  0.54974366

 position of ions in cartesian coordinates  (Angst):
   4.23357132  4.23357132 16.31337587
   4.23357132  4.23357132 17.45681361
   2.11678566  0.00000000  7.50000000
   4.23357132  2.11678566  7.50000000
   2.11678566  2.11678566  9.61678566
   4.23357132  0.00000000  9.61678566
   2.11789210  0.00000000 11.74378574
   4.23357132  2.12143728 11.74989911
   2.11394684  2.11394684 13.84000727
   4.23357132  0.00000000 13.84201961
   2.11678566  4.23357132  7.50000000
   4.23357132  6.35035697  7.50000000
   2.11678566  6.35035697  9.61678566
   4.23357132  4.23357132  9.61678566
   2.12143728  4.23357132 11.74989911
   4.23357132  6.34570535 11.74989911
   2.11394684  6.35319579 13.84000727
   4.23357132  4.23357132 13.89963502
   6.35035697  0.00000000  7.50000000
   0.00000000  2.11678566  7.50000000
   6.35035697  2.11678566  9.61678566
   0.00000000  0.00000000  9.61678566
   6.34925053  0.00000000 11.74378574
   0.00000000  2.11789210 11.74378574
   6.35319579  2.11394684 13.84000727
   0.00000000  0.00000000 13.84178315
   6.35035697  4.23357132  7.50000000
   0.00000000  6.35035697  7.50000000
   6.35035697  6.35035697  9.61678566
   0.00000000  4.23357132  9.61678566
   6.34570535  4.23357132 11.74989911
   0.00000000  6.34925053 11.74378574
   6.35319579  6.35319579 13.84000727
   0.00000000  4.23357132 13.84201961
   2.11678566  0.00000000  9.61678566
   4.23357132  2.11678566  9.61678566
   2.11678566  2.11678566  7.50000000
   4.23357132  0.00000000  7.50000000
   2.11404204  0.00000000 13.89254400
   4.23357132  2.10507030 13.89641088
   2.11674862  2.11674862 11.73874694
   4.23357132  0.00000000 11.73722335
   2.11678566  4.23357132  9.61678566
   4.23357132  6.35035697  9.61678566
   2.11678566  6.35035697  7.50000000
   4.23357132  4.23357132  7.50000000
   2.10507030  4.23357132 13.89641088
   4.23357132  6.36207233 13.89641088
   2.11674862  6.35039401 11.73874694
   4.23357132  4.23357132 11.75041252
   6.35035697  0.00000000  9.61678566
   0.00000000  2.11678566  9.61678566
   6.35035697  2.11678566  7.50000000
   0.00000000  0.00000000  7.50000000
   6.35310059  0.00000000 13.89254400
   0.00000000  2.11404204 13.89254400
   6.35039401  2.11674862 11.73874694
   0.00000000  0.00000000 11.73652345
   6.35035697  4.23357132  9.61678566
   0.00000000  6.35035697  9.61678566
   6.35035697  6.35035697  7.50000000
   0.00000000  4.23357132  7.50000000
   6.36207233  4.23357132 13.89641088
   0.00000000  6.35310059 13.89254400
   6.35039401  6.35039401 11.73874694
   0.00000000  4.23357132 11.73722335



--------------------------------------------------------------------------------------------------------


 k-point   1 :   0.0000 0.0000 0.0000  plane waves:   50993
 k-point   2 :   0.5000 0.0000 0.0000  plane waves:   51062
 k-point   3 :   0.0000 0.5000 0.0000  plane waves:   51062
 k-point   4 :   0.5000 0.5000 0.0000  plane waves:   51224

 maximum and minimum number of plane-waves per node :      6417     6342

 maximum number of plane-waves:     51224
 maximum index in each direction: 
   IXMAX=   16   IYMAX=   16   IZMAX=   42
   IXMIN=  -17   IYMIN=  -17   IZMIN=  -42


 parallel 3D FFT for wavefunctions:
    minimum data exchange during FFTs selected (reduces bandwidth)
 parallel 3D FFT for charge:
    minimum data exchange during FFTs selected (reduces bandwidth)


 total amount of memory used by VASP MPI-rank0    67097. kBytes
=======================================================================

   base      :      30000. kBytes
   nonl-proj :      17582. kBytes
   fftplans  :       4925. kBytes
   grid      :       8190. kBytes
   one-center:         73. kBytes
   wavefun   :       6327. kBytes

     INWAV:  cpu time      0.0001: real time      0.0002
 Broyden mixing: mesh for mixing (old mesh)
   NGX = 33   NGY = 33   NGZ = 85
  (NGX  =140   NGY  =140   NGZ  =360)
  gives a total of  92565 points

 initial charge density was supplied:
 charge density of overlapping atoms calculated
 number of electron     458.0000000 magnetization 
 keeping initial charge density in first step


--------------------------------------------------------------------------------------------------------


 Maximum index for augmentation-charges          604 (set IRDMAX)


--------------------------------------------------------------------------------------------------------


 First call to EWALD:  gamma=   0.154
 Maximum number of real-space cells 4x 4x 2
 Maximum number of reciprocal cells 2x 2x 5

    FEWALD:  cpu time      0.0033: real time      0.0034


--------------------------------------- Iteration      1(   1)  ---------------------------------------


    POTLOK:  cpu time      0.0829: real time      0.0835
    SETDIJ:  cpu time      0.1894: real time      0.1894
    TRIAL :  cpu time     19.0180: real time     19.1351
    CORREC:  cpu time      0.0011: real time      0.0011
    --------------------------------------------
      LOOP:  cpu time     19.2932: real time     19.4157

 eigenvalue-minimisations  :  3072
 total energy-change (2. order) : 0.4129514E+04  (-0.3059740E+05)
 number of electron     458.0000000 magnetization 
 augmentation part      458.0000000 magnetization 

 DIPCOR: dipole corrections for dipol
 direction  3 min pos     1,
 dipolmoment           0.000000      0.000000     -0.000241 electrons x Angstroem
 Tr[quadrupol]     -6357.714726

 energy correction for charged system         0.000000 eV
 dipol+quadrupol energy correction           -0.000000 eV
 added-field ion interaction          0.001893 eV  (added to PSCEN)


 Free energy of the ion-electron system (eV)
  ---------------------------------------------------
  alpha Z        PSCENC =       901.53545673
  Ewald energy   TEWEN  =    136283.33494689
  -Hartree energ DENC   =   -172375.71704424
  -exchange      EXHF   =         0.00000000
  -V(xc)+E(xc)   XCENC  =      1788.27638999
  PAW double counting   =     32310.01086261   -36145.30683839
  entropy T*S    EENTRO =        -0.02155416
  eigenvalues    EBANDS =     -6862.48710878
  atomic energy  EATOM  =     48229.88884101
  ---------------------------------------------------
  free energy    TOTEN  =      4129.51395166 eV

  energy without entropy =     4129.53550581  energy(sigma->0) =     4129.52472873


--------------------------------------------------------------------------------------------------------




--------------------------------------- Iteration      1(   2)  ---------------------------------------


    TRIAL :  cpu time      3.9522: real time      3.9526
    CORREC:  cpu time      0.0003: real time      0.0003
    --------------------------------------------
      LOOP:  cpu time      4.0505: real time      4.0596

 eigenvalue-minimisations  :  3072
 total energy-change (2. order) :-0.4264536E+04  (-0.4192703E+04)
 number of electron     458.0000000 magnetization 
 augmentation part      458.0000000 magnetization 

 DIPCOR: dipole corrections for dipol
 direction  3 min pos     1,
 dipolmoment           0.000000      0.000000     -0.000241 electrons x Angstroem
 Tr[quadrupol]     -6357.714726

 energy correction for charged system         0.000000 eV
 dipol+quadrupol energy correction           -0.000000 eV
 added-field ion interaction          0.001893 eV  (added to PSCEN)


 Free energy of the ion-electron system (eV)
  ---------------------------------------------------
  alpha Z        PSCENC =       901.53545673
  Ewald energy   TEWEN  =    136283.33494689
  -Hartree energ DENC   =   -172375.71704424
  -exchange      EXHF   =         0.00000000
  -V(xc)+E(xc)   XCENC  =      1788.27638999
  PAW double counting   =     32310.01086261   -36145.30683839
  entropy T*S    EENTRO =        -0.00000000
  eigenvalues    EBANDS =    -11127.04485754
  atomic energy  EATOM  =     48229.88884101
  ---------------------------------------------------
  free energy    TOTEN  =      -135.02224294 eV

  energy without entropy =     -135.02224294  energy(sigma->0) =     -135.02224294


--------------------------------------------------------------------------------------------------------




--------------------------------------- Iteration      1(   3)  ---------------------------------------


    TRIAL :  cpu time      4.2006: real time      4.2009
    CORREC:  cpu time      0.0003: real time      0.0003
    --------------------------------------------
      LOOP:  cpu time      4.2055: real time      4.2156

 eigenvalue-minimisations  :  3072
 total energy-change (2. order) :-0.3095291E+03  (-0.3074418E+03)
 number of electron     458.0000000 magnetization 
 augmentation part      458.0000000 magnetization 

 DIPCOR: dipole corrections for dipol
 direction  3 min pos     1,
 dipolmoment           0.000000      0.000000     -0.000241 electrons x Angstroem
 Tr[quadrupol]     -6357.714726

 energy correction for charged system         0.000000 eV
 dipol+quadrupol energy correction           -0.000000 eV
 added-field ion interaction          0.001893 eV  (added to PSCEN)


 Free energy of the ion-electron system (eV)
  ---------------------------------------------------
  alpha Z        PSCENC =       901.53545673
  Ewald energy   TEWEN  =    136283.33494689
  -Hartree energ DENC   =   -172375.71704424
  -exchange      EXHF   =         0.00000000
  -V(xc)+E(xc)   XCENC  =      1788.27638999
  PAW double counting   =     32310.01086261   -36145.30683839
  entropy T*S    EENTRO =        -0.00000000
  eigenvalues    EBANDS =    -11436.57394670
  atomic energy  EATOM  =     48229.88884101
  ---------------------------------------------------
  free energy    TOTEN  =      -444.55133211 eV

  energy without entropy =     -444.55133211  energy(sigma->0) =     -444.55133211


--------------------------------------------------------------------------------------------------------




--------------------------------------- Iteration      1(   4)  ---------------------------------------


    TRIAL :  cpu time      4.3272: real time      4.3276
    CORREC:  cpu time      0.0003: real time      0.0003
    --------------------------------------------
      LOOP:  cpu time      4.3413: real time      4.3419

 eigenvalue-minimisations  :  3136
 total energy-change (2. order) :-0.5978991E+01  (-0.5971434E+01)
 number of electron     458.0000000 magnetization 
 augmentation part      458.0000000 magnetization 

 DIPCOR: dipole corrections for dipol
 direction  3 min pos     1,
 dipolmoment           0.000000      0.000000     -0.000241 electrons x Angstroem
 Tr[quadrupol]     -6357.714726

 energy correction for charged system         0.000000 eV
 dipol+quadrupol energy correction           -0.000000 eV
 added-field ion interaction          0.001893 eV  (added to PSCEN)


 Free energy of the ion-electron system (eV)
  ---------------------------------------------------
  alpha Z        PSCENC =       901.53545673
  Ewald energy   TEWEN  =    136283.33494689
  -Hartree energ DENC   =   -172375.71704424
  -exchange      EXHF   =         0.00000000
  -V(xc)+E(xc)   XCENC  =      1788.27638999
  PAW double counting   =     32310.01086261   -36145.30683839
  entropy T*S    EENTRO =        -0.00000000
  eigenvalues    EBANDS =    -11442.55293818
  atomic energy  EATOM  =     48229.88884101
  ---------------------------------------------------
  free energy    TOTEN  =      -450.53032358 eV

  energy without entropy =     -450.53032358  energy(sigma->0) =     -450.53032358


--------------------------------------------------------------------------------------------------------




--------------------------------------- Iteration      1(   5)  ---------------------------------------


    TRIAL :  cpu time      4.0788: real time      4.0796
    CORREC:  cpu time      0.0003: real time      0.0003
    CHARGE:  cpu time      0.0430: real time      0.0431
    --------------------------------------------
      LOOP:  cpu time      4.1359: real time      4.1371

 eigenvalue-minimisations  :  3136
 total energy-change (2. order) :-0.8286211E-01  (-0.8285833E-01)
 number of electron     457.9999538 magnetization 
 augmentation part      159.5606439 magnetization 

 DIPCOR: dipole corrections for dipol
 direction  3 min pos     1,
 dipolmoment           0.000000      0.000000     -0.000241 electrons x Angstroem
 Tr[quadrupol]     -6357.714726

 energy correction for charged system         0.000000 eV
 dipol+quadrupol energy correction           -0.000000 eV
 added-field ion interaction          0.001893 eV  (added to PSCEN)


 Free energy of the ion-electron system (eV)
  ---------------------------------------------------
  alpha Z        PSCENC =       901.53545673
  Ewald energy   TEWEN  =    136283.33494689
  -Hartree energ DENC   =   -172375.71704424
  -exchange      EXHF   =         0.00000000
  -V(xc)+E(xc)   XCENC  =      1788.27638999
  PAW double counting   =     32310.01086261   -36145.30683839
  entropy T*S    EENTRO =        -0.00000000
  eigenvalues    EBANDS =    -11442.63580028
  atomic energy  EATOM  =     48229.88884101
  ---------------------------------------------------
  free energy    TOTEN  =      -450.61318569 eV

  energy without entropy =     -450.61318569  energy(sigma->0) =     -450.61318569


--------------------------------------------------------------------------------------------------------




--------------------------------------- Iteration      1(   6)  ---------------------------------------


    POTLOK:  cpu time      0.0595: real time      0.0595
    SETDIJ:  cpu time      0.1880: real time      0.1880
    TRIAL :  cpu time      1.1340: real time      1.1347
    CORREC:  cpu time      0.8080: real time      0.8080
    CHARGE:  cpu time      0.0375: real time      0.0375
    --------------------------------------------
      LOOP:  cpu time      2.2321: real time      2.2417

 eigenvalue-minimisations  :     0
 total energy-change (2. order) : 0.1741966E+03  (-0.9634997E+02)
 number of electron     457.9999550 magnetization 
 augmentation part      156.6576451 magnetization 

 DIPCOR: dipole corrections for dipol
 direction  3 min pos     1,
 dipolmoment           0.000000      0.000000      0.166152 electrons x Angstroem
 Tr[quadrupol]     -6394.663593

 energy correction for charged system         0.000000 eV
 dipol+quadrupol energy correction           -0.001632 eV
 added-field ion interaction         -1.303434 eV  (added to PSCEN)


 Free energy of the ion-electron system (eV)
  ---------------------------------------------------
  alpha Z        PSCENC =       898.22113598
  Ewald energy   TEWEN  =    136283.33494689
  -Hartree energ DENC   =   -176226.72186931
  -exchange      EXHF   =         0.00000000
  -V(xc)+E(xc)   XCENC  =      1914.00931083
  PAW double counting   =     36949.87644192   -40738.78360141
  entropy T*S    EENTRO =        -0.00000000
  eigenvalues    EBANDS =     -7586.24175820
  atomic energy  EATOM  =     48229.88884101
  ---------------------------------------------------
  free energy    TOTEN  =      -276.41655229 eV

  energy without entropy =     -276.41655229  energy(sigma->0) =     -276.41655229


--------------------------------------------------------------------------------------------------------




--------------------------------------- Iteration      1(   7)  ---------------------------------------


    POTLOK:  cpu time      0.0560: real time      0.0560
    SETDIJ:  cpu time      0.1880: real time      0.1880
    TRIAL :  cpu time      0.9851: real time      0.9852
    CORREC:  cpu time      0.7848: real time      0.7849
    CHARGE:  cpu time      0.0375: real time      0.0375
    --------------------------------------------
      LOOP:  cpu time      2.0576: real time      2.0657

 eigenvalue-minimisations  :     0
 total energy-change (2. order) :-0.9675922E+02  (-0.6862901E+01)
 number of electron     457.9999556 magnetization 
 augmentation part      154.7776562 magnetization 

 DIPCOR: dipole corrections for dipol
 direction  3 min pos     1,
 dipolmoment           0.000000      0.000000      0.151015 electrons x Angstroem
 Tr[quadrupol]     -6399.990882

 energy correction for charged system         0.000000 eV
 dipol+quadrupol energy correction           -0.001348 eV
 added-field ion interaction         -1.184688 eV  (added to PSCEN)


 Free energy of the ion-electron system (eV)
  ---------------------------------------------------
  alpha Z        PSCENC =       899.98252873
  Ewald energy   TEWEN  =    136283.33494689
  -Hartree energ DENC   =   -174387.82193766
  -exchange      EXHF   =         0.00000000
  -V(xc)+E(xc)   XCENC  =      1845.12552215
  PAW double counting   =     35827.26937259   -39685.05821790
  entropy T*S    EENTRO =        -0.00000000
  eigenvalues    EBANDS =     -9385.89683186
  atomic energy  EATOM  =     48229.88884101
  ---------------------------------------------------
  free energy    TOTEN  =      -373.17577605 eV

  energy without entropy =     -373.17577605  energy(sigma->0) =     -373.17577605


--------------------------------------------------------------------------------------------------------




--------------------------------------- Iteration      1(   8)  ---------------------------------------


    POTLOK:  cpu time      0.0536: real time      0.0536
    SETDIJ:  cpu time      0.1878: real time      0.1878
    TRIAL :  cpu time      1.0497: real time      1.0498
    CORREC:  cpu time      0.7890: real time      0.7891
    CHARGE:  cpu time      0.0376: real time      0.0376
    --------------------------------------------
      LOOP:  cpu time      2.1319: real time      2.1323

 eigenvalue-minimisations  :     0
 total energy-change (2. order) :-0.6880231E+01  (-0.4204706E+01)
 number of electron     457.9999556 magnetization 
 augmentation part      154.9007526 magnetization 

 DIPCOR: dipole corrections for dipol
 direction  3 min pos     1,
 dipolmoment           0.000000      0.000000      0.105491 electrons x Angstroem
 Tr[quadrupol]     -6398.459918

 energy correction for charged system         0.000000 eV
 dipol+quadrupol energy correction           -0.000658 eV
 added-field ion interaction         -0.827558 eV  (added to PSCEN)


 Free energy of the ion-electron system (eV)
  ---------------------------------------------------
  alpha Z        PSCENC =       900.47120290
  Ewald energy   TEWEN  =    136283.33494689
  -Hartree energ DENC   =   -174280.03336995
  -exchange      EXHF   =         0.00000000
  -V(xc)+E(xc)   XCENC  =      1835.33897323
  PAW double counting   =     35708.27832554   -39496.70144321
  entropy T*S    EENTRO =        -0.00000000
  eigenvalues    EBANDS =     -9560.63348373
  atomic energy  EATOM  =     48229.88884101
  ---------------------------------------------------
  free energy    TOTEN  =      -380.05600731 eV

  energy without entropy =     -380.05600731  energy(sigma->0) =     -380.05600731


--------------------------------------------------------------------------------------------------------




--------------------------------------- Iteration      1(   9)  ---------------------------------------


    POTLOK:  cpu time      0.0542: real time      0.0542
    SETDIJ:  cpu time      0.1879: real time      0.1879
    TRIAL :  cpu time      0.9829: real time      0.9830
    CORREC:  cpu time      0.7912: real time      0.7912
    CHARGE:  cpu time      0.0382: real time      0.0382
    --------------------------------------------
      LOOP:  cpu time      2.0619: real time      2.0690

 eigenvalue-minimisations  :     0
 total energy-change (2. order) :-0.4166518E+01  (-0.1837219E+01)
 number of electron     457.9999556 magnetization 
 augmentation part      154.9523358 magnetization 

 DIPCOR: dipole corrections for dipol
 direction  3 min pos     1,
 dipolmoment           0.000000      0.000000      0.122519 electrons x Angstroem
 Tr[quadrupol]     -6393.148962

 energy correction for charged system         0.000000 eV
 dipol+quadrupol energy correction           -0.000887 eV
 added-field ion interaction         -0.961146 eV  (added to PSCEN)


 Free energy of the ion-electron system (eV)
  ---------------------------------------------------
  alpha Z        PSCENC =       900.80745783
  Ewald energy   TEWEN  =    136283.33494689
  -Hartree energ DENC   =   -174179.10664716
  -exchange      EXHF   =         0.00000000
  -V(xc)+E(xc)   XCENC  =      1834.99238117
  PAW double counting   =     35632.46525175   -39456.47470649
  entropy T*S    EENTRO =        -0.00000000
  eigenvalues    EBANDS =     -9630.13005036
  atomic energy  EATOM  =     48229.88884101
  ---------------------------------------------------
  free energy    TOTEN  =      -384.22252535 eV

  energy without entropy =     -384.22252535  energy(sigma->0) =     -384.22252535


--------------------------------------------------------------------------------------------------------




--------------------------------------- Iteration      1(  10)  ---------------------------------------


    POTLOK:  cpu time      0.0551: real time      0.0551
    SETDIJ:  cpu time      0.1879: real time      0.1879
    TRIAL :  cpu time      0.9799: real time      0.9800
    CORREC:  cpu time      0.7899: real time      0.7900
    CHARGE:  cpu time      0.0376: real time      0.0376
    --------------------------------------------
      LOOP:  cpu time      2.0550: real time      2.0651

 eigenvalue-minimisations  :     0
 total energy-change (2. order) :-0.1840722E+01  (-0.6568753E+00)
 number of electron     457.9999556 magnetization 
 augmentation part      154.9099811 magnetization 

 DIPCOR: dipole corrections for dipol
 direction  3 min pos     1,
 dipolmoment           0.000000      0.000000      0.147269 electrons x Angstroem
 Tr[quadrupol]     -6391.526710

 energy correction for charged system         0.000000 eV
 dipol+quadrupol energy correction           -0.001282 eV
 added-field ion interaction         -1.155305 eV  (added to PSCEN)


 Free energy of the ion-electron system (eV)
  ---------------------------------------------------
  alpha Z        PSCENC =       900.58835742
  Ewald energy   TEWEN  =    136283.33494689
  -Hartree energ DENC   =   -174038.75157226
  -exchange      EXHF   =         0.00000000
  -V(xc)+E(xc)   XCENC  =      1833.61105007
  PAW double counting   =     35531.92712782   -39365.29673452
  entropy T*S    EENTRO =        -0.00000000
  eigenvalues    EBANDS =     -9761.36526392
  atomic energy  EATOM  =     48229.88884101
  ---------------------------------------------------
  free energy    TOTEN  =      -386.06324748 eV

  energy without entropy =     -386.06324748  energy(sigma->0) =     -386.06324748


--------------------------------------------------------------------------------------------------------




--------------------------------------- Iteration      1(  11)  ---------------------------------------


    POTLOK:  cpu time      0.0542: real time      0.0542
    SETDIJ:  cpu time      0.1879: real time      0.1879
    TRIAL :  cpu time      0.9785: real time      0.9786
    CORREC:  cpu time      0.7876: real time      0.7877
    CHARGE:  cpu time      0.0378: real time      0.0378
    --------------------------------------------
      LOOP:  cpu time      2.0533: real time      2.0610

 eigenvalue-minimisations  :     0
 total energy-change (2. order) :-0.6575046E+00  (-0.2017081E+00)
 number of electron     457.9999556 magnetization 
 augmentation part      154.9828156 magnetization 

 DIPCOR: dipole corrections for dipol
 direction  3 min pos     1,
 dipolmoment           0.000000      0.000000      0.145430 electrons x Angstroem
 Tr[quadrupol]     -6391.545346

 energy correction for charged system         0.000000 eV
 dipol+quadrupol energy correction           -0.001250 eV
 added-field ion interaction         -1.140878 eV  (added to PSCEN)


 Free energy of the ion-electron system (eV)
  ---------------------------------------------------
  alpha Z        PSCENC =       900.39574509
  Ewald energy   TEWEN  =    136283.33494689
  -Hartree energ DENC   =   -173965.91155457
  -exchange      EXHF   =         0.00000000
  -V(xc)+E(xc)   XCENC  =      1832.49314859
  PAW double counting   =     35473.08803609   -39298.37501037
  entropy T*S    EENTRO =        -0.00000000
  eigenvalues    EBANDS =     -9841.63490484
  atomic energy  EATOM  =     48229.88884101
  ---------------------------------------------------
  free energy    TOTEN  =      -386.72075212 eV

  energy without entropy =     -386.72075212  energy(sigma->0) =     -386.72075212


--------------------------------------------------------------------------------------------------------




--------------------------------------- Iteration      1(  12)  ---------------------------------------


    POTLOK:  cpu time      0.0540: real time      0.0540
    SETDIJ:  cpu time      0.1875: real time      0.1876
    TRIAL :  cpu time      0.9823: real time      0.9824
    CORREC:  cpu time      0.7896: real time      0.7897
    CHARGE:  cpu time      0.0374: real time      0.0374
    --------------------------------------------
      LOOP:  cpu time      2.0568: real time      2.0655

 eigenvalue-minimisations  :     0
 total energy-change (2. order) :-0.2017090E+00  (-0.6073627E-01)
 number of electron     457.9999555 magnetization 
 augmentation part      155.0672524 magnetization 

 DIPCOR: dipole corrections for dipol
 direction  3 min pos     1,
 dipolmoment           0.000000      0.000000      0.139255 electrons x Angstroem
 Tr[quadrupol]     -6391.734065

 energy correction for charged system         0.000000 eV
 dipol+quadrupol energy correction           -0.001146 eV
 added-field ion interaction         -1.092434 eV  (added to PSCEN)


 Free energy of the ion-electron system (eV)
  ---------------------------------------------------
  alpha Z        PSCENC =       900.39146556
  Ewald energy   TEWEN  =    136283.33494689
  -Hartree energ DENC   =   -173961.91773996
  -exchange      EXHF   =         0.00000000
  -V(xc)+E(xc)   XCENC  =      1832.49888333
  PAW double counting   =     35458.51631205   -39282.07508815
  entropy T*S    EENTRO =        -0.00000000
  eigenvalues    EBANDS =     -9847.56008190
  atomic energy  EATOM  =     48229.88884101
  ---------------------------------------------------
  free energy    TOTEN  =      -386.92246116 eV

  energy without entropy =     -386.92246116  energy(sigma->0) =     -386.92246116


--------------------------------------------------------------------------------------------------------




--------------------------------------- Iteration      1(  13)  ---------------------------------------


    POTLOK:  cpu time      0.0542: real time      0.0542
    SETDIJ:  cpu time      0.1878: real time      0.1879
    TRIAL :  cpu time      0.9821: real time      0.9822
    CORREC:  cpu time      0.7863: real time      0.7864
    CHARGE:  cpu time      0.0377: real time      0.0377
    --------------------------------------------
      LOOP:  cpu time      2.0625: real time      2.0628

 eigenvalue-minimisations  :     0
 total energy-change (2. order) :-0.6073966E-01  (-0.2212758E-01)
 number of electron     457.9999555 magnetization 
 augmentation part      155.0927274 magnetization 

 DIPCOR: dipole corrections for dipol
 direction  3 min pos     1,
 dipolmoment           0.000000      0.000000      0.135365 electrons x Angstroem
 Tr[quadrupol]     -6391.864731

 energy correction for charged system         0.000000 eV
 dipol+quadrupol energy correction           -0.001083 eV
 added-field ion interaction         -1.061920 eV  (added to PSCEN)


 Free energy of the ion-electron system (eV)
  ---------------------------------------------------
  alpha Z        PSCENC =       900.44383842
  Ewald energy   TEWEN  =    136283.33494689
  -Hartree energ DENC   =   -173971.11209564
  -exchange      EXHF   =         0.00000000
  -V(xc)+E(xc)   XCENC  =      1832.65021040
  PAW double counting   =     35455.54750078   -39281.66505236
  entropy T*S    EENTRO =        -0.00000000
  eigenvalues    EBANDS =     -9836.07139033
  atomic energy  EATOM  =     48229.88884101
  ---------------------------------------------------
  free energy    TOTEN  =      -386.98320082 eV

  energy without entropy =     -386.98320082  energy(sigma->0) =     -386.98320082


--------------------------------------------------------------------------------------------------------




--------------------------------------- Iteration      1(  14)  ---------------------------------------


    POTLOK:  cpu time      0.0542: real time      0.0542
    SETDIJ:  cpu time      0.1878: real time      0.1878
    TRIAL :  cpu time      0.9822: real time      0.9823
    CORREC:  cpu time      0.7861: real time      0.7861
    CHARGE:  cpu time      0.0375: real time      0.0375
    --------------------------------------------
      LOOP:  cpu time      2.0551: real time      2.0623

 eigenvalue-minimisations  :     0
 total energy-change (2. order) :-0.2212861E-01  (-0.8926968E-02)
 number of electron     457.9999555 magnetization 
 augmentation part      155.0846667 magnetization 

 DIPCOR: dipole corrections for dipol
 direction  3 min pos     1,
 dipolmoment           0.000000      0.000000      0.133028 electrons x Angstroem
 Tr[quadrupol]     -6392.011187

 energy correction for charged system         0.000000 eV
 dipol+quadrupol energy correction           -0.001046 eV
 added-field ion interaction         -1.043585 eV  (added to PSCEN)


 Free energy of the ion-electron system (eV)
  ---------------------------------------------------
  alpha Z        PSCENC =       900.47721043
  Ewald energy   TEWEN  =    136283.33494689
  -Hartree energ DENC   =   -173975.08096620
  -exchange      EXHF   =         0.00000000
  -V(xc)+E(xc)   XCENC  =      1832.63203347
  PAW double counting   =     35454.00217797   -39281.21707654
  entropy T*S    EENTRO =        -0.00000000
  eigenvalues    EBANDS =     -9831.04249646
  atomic energy  EATOM  =     48229.88884101
  ---------------------------------------------------
  free energy    TOTEN  =      -387.00532943 eV

  energy without entropy =     -387.00532943  energy(sigma->0) =     -387.00532943


--------------------------------------------------------------------------------------------------------




--------------------------------------- Iteration      1(  15)  ---------------------------------------


    POTLOK:  cpu time      0.0531: real time      0.0531
    SETDIJ:  cpu time      0.1880: real time      0.1880
    TRIAL :  cpu time      0.9800: real time      0.9800
    CORREC:  cpu time      0.7853: real time      0.7854
    CHARGE:  cpu time      0.0374: real time      0.0374
    --------------------------------------------
      LOOP:  cpu time      2.0578: real time      2.0582

 eigenvalue-minimisations  :     0
 total energy-change (2. order) :-0.8929312E-02  (-0.3780969E-02)
 number of electron     457.9999555 magnetization 
 augmentation part      155.0771198 magnetization 

 DIPCOR: dipole corrections for dipol
 direction  3 min pos     1,
 dipolmoment           0.000000      0.000000      0.131787 electrons x Angstroem
 Tr[quadrupol]     -6392.142140

 energy correction for charged system         0.000000 eV
 dipol+quadrupol energy correction           -0.001027 eV
 added-field ion interaction         -1.033852 eV  (added to PSCEN)


 Free energy of the ion-electron system (eV)
  ---------------------------------------------------
  alpha Z        PSCENC =       900.49219702
  Ewald energy   TEWEN  =    136283.33494689
  -Hartree energ DENC   =   -173979.90764774
  -exchange      EXHF   =         0.00000000
  -V(xc)+E(xc)   XCENC  =      1832.67188183
  PAW double counting   =     35456.56725135   -39283.18888415
  entropy T*S    EENTRO =        -0.00000000
  eigenvalues    EBANDS =     -9826.87284496
  atomic energy  EATOM  =     48229.88884101
  ---------------------------------------------------
  free energy    TOTEN  =      -387.01425874 eV

  energy without entropy =     -387.01425874  energy(sigma->0) =     -387.01425874


--------------------------------------------------------------------------------------------------------




--------------------------------------- Iteration      1(  16)  ---------------------------------------


    POTLOK:  cpu time      0.0544: real time      0.0544
    SETDIJ:  cpu time      0.1879: real time      0.1879
    TRIAL :  cpu time      0.9809: real time      0.9809
    CORREC:  cpu time      0.7875: real time      0.7875
    CHARGE:  cpu time      0.0379: real time      0.0379
    --------------------------------------------
      LOOP:  cpu time      2.0537: real time      2.0630

 eigenvalue-minimisations  :     0
 total energy-change (2. order) :-0.3780158E-02  (-0.1292119E-02)
 number of electron     457.9999555 magnetization 
 augmentation part      155.0749353 magnetization 

 DIPCOR: dipole corrections for dipol
 direction  3 min pos     1,
 dipolmoment           0.000000      0.000000      0.131758 electrons x Angstroem
 Tr[quadrupol]     -6392.205814

 energy correction for charged system         0.000000 eV
 dipol+quadrupol energy correction           -0.001026 eV
 added-field ion interaction         -1.033622 eV  (added to PSCEN)


 Free energy of the ion-electron system (eV)
[...]
      2.113947  6.353196 13.840007            0           0           0  
      4.233571  4.233571 13.899635            0           0           0  
      6.350357  0.000000  7.500000            0           0           0  
      0.000000  2.116786  7.500000            0           0           0  
      6.350357  2.116786  9.616786            0           0           0  
      0.000000  0.000000  9.616786            0           0           0  
      6.349251  0.000000 11.743786            0           0           0  
      0.000000  2.117892 11.743786            0           0           0  
      6.353196  2.113947 13.840007            0           0           0  
      0.000000  0.000000 13.841783            0           0           0  
      6.350357  4.233571  7.500000            0           0           0  
      0.000000  6.350357  7.500000            0           0           0  
      6.350357  6.350357  9.616786            0           0           0  
      0.000000  4.233571  9.616786            0           0           0  
      6.345705  4.233571 11.749899            0           0           0  
      0.000000  6.349251 11.743786            0           0           0  
      6.353196  6.353196 13.840007            0           0           0  
      0.000000  4.233571 13.842020            0           0           0  
      2.116786  0.000000  9.616786            0           0           0  
      4.233571  2.116786  9.616786            0           0           0  
      2.116786  2.116786  7.500000            0           0           0  
      4.233571  0.000000  7.500000            0           0           0  
      2.114042  0.000000 13.892544            0           0           0  
      4.233571  2.105070 13.896411            0           0           0  
      2.116749  2.116749 11.738747            0           0           0  
      4.233571  0.000000 11.737223            0           0           0  
      2.116786  4.233571  9.616786            0           0           0  
      4.233571  6.350357  9.616786            0           0           0  
      2.116786  6.350357  7.500000            0           0           0  
      4.233571  4.233571  7.500000            0           0           0  
      2.105070  4.233571 13.896411            0           0           0  
      4.233571  6.362072 13.896411            0           0           0  
      2.116749  6.350394 11.738747            0           0           0  
      4.233571  4.233571 11.750413            0           0           0  
      6.350357  0.000000  9.616786            0           0           0  
      0.000000  2.116786  9.616786            0           0           0  
      6.350357  2.116786  7.500000            0           0           0  
      0.000000  0.000000  7.500000            0           0           0  
      6.353101  0.000000 13.892544            0           0           0  
      0.000000  2.114042 13.892544            0           0           0  
      6.350394  2.116749 11.738747            0           0           0  
      0.000000  0.000000 11.736523            0           0           0  
      6.350357  4.233571  9.616786            0           0           0  
      0.000000  6.350357  9.616786            0           0           0  
      6.350357  6.350357  7.500000            0           0           0  
      0.000000  4.233571  7.500000            0           0           0  
      6.362072  4.233571 13.896411            0           0           0  
      0.000000  6.353101 13.892544            0           0           0  
      6.350394  6.350394 11.738747            0           0           0  
      0.000000  4.233571 11.737223            0           0           0  

   4 f  =    3.431567 THz    21.561172 2PiTHz  114.464757 cm-1    14.191815 meV
             X         Y         Z           dx          dy          dz
      4.233571  4.233571 16.313376    -0.000937    0.002544    0.653388  
      4.233571  4.233571 17.456814    -0.003449    0.005229    0.756993  
      2.116786  0.000000  7.500000            0           0           0  
      4.233571  2.116786  7.500000            0           0           0  
      2.116786  2.116786  9.616786            0           0           0  
      4.233571  0.000000  9.616786            0           0           0  
      2.117892  0.000000 11.743786            0           0           0  
      4.233571  2.121437 11.749899            0           0           0  
      2.113947  2.113947 13.840007            0           0           0  
      4.233571  0.000000 13.842020            0           0           0  
      2.116786  4.233571  7.500000            0           0           0  
      4.233571  6.350357  7.500000            0           0           0  
      2.116786  6.350357  9.616786            0           0           0  
      4.233571  4.233571  9.616786            0           0           0  
      2.121437  4.233571 11.749899            0           0           0  
      4.233571  6.345705 11.749899            0           0           0  
      2.113947  6.353196 13.840007            0           0           0  
      4.233571  4.233571 13.899635            0           0           0  
      6.350357  0.000000  7.500000            0           0           0  
      0.000000  2.116786  7.500000            0           0           0  
      6.350357  2.116786  9.616786            0           0           0  
      0.000000  0.000000  9.616786            0           0           0  
      6.349251  0.000000 11.743786            0           0           0  
      0.000000  2.117892 11.743786            0           0           0  
      6.353196  2.113947 13.840007            0           0           0  
      0.000000  0.000000 13.841783            0           0           0  
      6.350357  4.233571  7.500000            0           0           0  
      0.000000  6.350357  7.500000            0           0           0  
      6.350357  6.350357  9.616786            0           0           0  
      0.000000  4.233571  9.616786            0           0           0  
      6.345705  4.233571 11.749899            0           0           0  
      0.000000  6.349251 11.743786            0           0           0  
      6.353196  6.353196 13.840007            0           0           0  
      0.000000  4.233571 13.842020            0           0           0  
      2.116786  0.000000  9.616786            0           0           0  
      4.233571  2.116786  9.616786            0           0           0  
      2.116786  2.116786  7.500000            0           0           0  
      4.233571  0.000000  7.500000            0           0           0  
      2.114042  0.000000 13.892544            0           0           0  
      4.233571  2.105070 13.896411            0           0           0  
      2.116749  2.116749 11.738747            0           0           0  
      4.233571  0.000000 11.737223            0           0           0  
      2.116786  4.233571  9.616786            0           0           0  
      4.233571  6.350357  9.616786            0           0           0  
      2.116786  6.350357  7.500000            0           0           0  
      4.233571  4.233571  7.500000            0           0           0  
      2.105070  4.233571 13.896411            0           0           0  
      4.233571  6.362072 13.896411            0           0           0  
      2.116749  6.350394 11.738747            0           0           0  
      4.233571  4.233571 11.750413            0           0           0  
      6.350357  0.000000  9.616786            0           0           0  
      0.000000  2.116786  9.616786            0           0           0  
      6.350357  2.116786  7.500000            0           0           0  
      0.000000  0.000000  7.500000            0           0           0  
      6.353101  0.000000 13.892544            0           0           0  
      0.000000  2.114042 13.892544            0           0           0  
      6.350394  2.116749 11.738747            0           0           0  
      0.000000  0.000000 11.736523            0           0           0  
      6.350357  4.233571  9.616786            0           0           0  
      0.000000  6.350357  9.616786            0           0           0  
      6.350357  6.350357  7.500000            0           0           0  
      0.000000  4.233571  7.500000            0           0           0  
      6.362072  4.233571 13.896411            0           0           0  
      0.000000  6.353101 13.892544            0           0           0  
      6.350394  6.350394 11.738747            0           0           0  
      0.000000  4.233571 11.737223            0           0           0  

   5 f/i=    0.877510 THz     5.513560 2PiTHz   29.270596 cm-1     3.629090 meV
             X         Y         Z           dx          dy          dz
      4.233571  4.233571 16.313376    -0.263063    0.257487   -0.004334  
      4.233571  4.233571 17.456814    -0.664341    0.650466   -0.004970  
      2.116786  0.000000  7.500000            0           0           0  
      4.233571  2.116786  7.500000            0           0           0  
      2.116786  2.116786  9.616786            0           0           0  
      4.233571  0.000000  9.616786            0           0           0  
      2.117892  0.000000 11.743786            0           0           0  
      4.233571  2.121437 11.749899            0           0           0  
      2.113947  2.113947 13.840007            0           0           0  
      4.233571  0.000000 13.842020            0           0           0  
      2.116786  4.233571  7.500000            0           0           0  
      4.233571  6.350357  7.500000            0           0           0  
      2.116786  6.350357  9.616786            0           0           0  
      4.233571  4.233571  9.616786            0           0           0  
      2.121437  4.233571 11.749899            0           0           0  
      4.233571  6.345705 11.749899            0           0           0  
      2.113947  6.353196 13.840007            0           0           0  
      4.233571  4.233571 13.899635            0           0           0  
      6.350357  0.000000  7.500000            0           0           0  
      0.000000  2.116786  7.500000            0           0           0  
      6.350357  2.116786  9.616786            0           0           0  
      0.000000  0.000000  9.616786            0           0           0  
      6.349251  0.000000 11.743786            0           0           0  
      0.000000  2.117892 11.743786            0           0           0  
      6.353196  2.113947 13.840007            0           0           0  
      0.000000  0.000000 13.841783            0           0           0  
      6.350357  4.233571  7.500000            0           0           0  
      0.000000  6.350357  7.500000            0           0           0  
      6.350357  6.350357  9.616786            0           0           0  
      0.000000  4.233571  9.616786            0           0           0  
      6.345705  4.233571 11.749899            0           0           0  
      0.000000  6.349251 11.743786            0           0           0  
      6.353196  6.353196 13.840007            0           0           0  
      0.000000  4.233571 13.842020            0           0           0  
      2.116786  0.000000  9.616786            0           0           0  
      4.233571  2.116786  9.616786            0           0           0  
      2.116786  2.116786  7.500000            0           0           0  
      4.233571  0.000000  7.500000            0           0           0  
      2.114042  0.000000 13.892544            0           0           0  
      4.233571  2.105070 13.896411            0           0           0  
      2.116749  2.116749 11.738747            0           0           0  
      4.233571  0.000000 11.737223            0           0           0  
      2.116786  4.233571  9.616786            0           0           0  
      4.233571  6.350357  9.616786            0           0           0  
      2.116786  6.350357  7.500000            0           0           0  
      4.233571  4.233571  7.500000            0           0           0  
      2.105070  4.233571 13.896411            0           0           0  
      4.233571  6.362072 13.896411            0           0           0  
      2.116749  6.350394 11.738747            0           0           0  
      4.233571  4.233571 11.750413            0           0           0  
      6.350357  0.000000  9.616786            0           0           0  
      0.000000  2.116786  9.616786            0           0           0  
      6.350357  2.116786  7.500000            0           0           0  
      0.000000  0.000000  7.500000            0           0           0  
      6.353101  0.000000 13.892544            0           0           0  
      0.000000  2.114042 13.892544            0           0           0  
      6.350394  2.116749 11.738747            0           0           0  
      0.000000  0.000000 11.736523            0           0           0  
      6.350357  4.233571  9.616786            0           0           0  
      0.000000  6.350357  9.616786            0           0           0  
      6.350357  6.350357  7.500000            0           0           0  
      0.000000  4.233571  7.500000            0           0           0  
      6.362072  4.233571 13.896411            0           0           0  
      0.000000  6.353101 13.892544            0           0           0  
      6.350394  6.350394 11.738747            0           0           0  
      0.000000  4.233571 11.737223            0           0           0  

   6 f/i=    0.923130 THz     5.800194 2PiTHz   30.792287 cm-1     3.817755 meV
             X         Y         Z           dx          dy          dz
      4.233571  4.233571 16.313376     0.257971    0.264444   -0.001106  
      4.233571  4.233571 17.456814     0.650297    0.663801   -0.001237  
      2.116786  0.000000  7.500000            0           0           0  
      4.233571  2.116786  7.500000            0           0           0  
      2.116786  2.116786  9.616786            0           0           0  
      4.233571  0.000000  9.616786            0           0           0  
      2.117892  0.000000 11.743786            0           0           0  
      4.233571  2.121437 11.749899            0           0           0  
      2.113947  2.113947 13.840007            0           0           0  
      4.233571  0.000000 13.842020            0           0           0  
      2.116786  4.233571  7.500000            0           0           0  
      4.233571  6.350357  7.500000            0           0           0  
      2.116786  6.350357  9.616786            0           0           0  
      4.233571  4.233571  9.616786            0           0           0  
      2.121437  4.233571 11.749899            0           0           0  
      4.233571  6.345705 11.749899            0           0           0  
      2.113947  6.353196 13.840007            0           0           0  
      4.233571  4.233571 13.899635            0           0           0  
      6.350357  0.000000  7.500000            0           0           0  
      0.000000  2.116786  7.500000            0           0           0  
      6.350357  2.116786  9.616786            0           0           0  
      0.000000  0.000000  9.616786            0           0           0  
      6.349251  0.000000 11.743786            0           0           0  
      0.000000  2.117892 11.743786            0           0           0  
      6.353196  2.113947 13.840007            0           0           0  
      0.000000  0.000000 13.841783            0           0           0  
      6.350357  4.233571  7.500000            0           0           0  
      0.000000  6.350357  7.500000            0           0           0  
      6.350357  6.350357  9.616786            0           0           0  
      0.000000  4.233571  9.616786            0           0           0  
      6.345705  4.233571 11.749899            0           0           0  
      0.000000  6.349251 11.743786            0           0           0  
      6.353196  6.353196 13.840007            0           0           0  
      0.000000  4.233571 13.842020            0           0           0  
      2.116786  0.000000  9.616786            0           0           0  
      4.233571  2.116786  9.616786            0           0           0  
      2.116786  2.116786  7.500000            0           0           0  
      4.233571  0.000000  7.500000            0           0           0  
      2.114042  0.000000 13.892544            0           0           0  
      4.233571  2.105070 13.896411            0           0           0  
      2.116749  2.116749 11.738747            0           0           0  
      4.233571  0.000000 11.737223            0           0           0  
      2.116786  4.233571  9.616786            0           0           0  
      4.233571  6.350357  9.616786            0           0           0  
      2.116786  6.350357  7.500000            0           0           0  
      4.233571  4.233571  7.500000            0           0           0  
      2.105070  4.233571 13.896411            0           0           0  
      4.233571  6.362072 13.896411            0           0           0  
      2.116749  6.350394 11.738747            0           0           0  
      4.233571  4.233571 11.750413            0           0           0  
      6.350357  0.000000  9.616786            0           0           0  
      0.000000  2.116786  9.616786            0           0           0  
      6.350357  2.116786  7.500000            0           0           0  
      0.000000  0.000000  7.500000            0           0           0  
      6.353101  0.000000 13.892544            0           0           0  
      0.000000  2.114042 13.892544            0           0           0  
      6.350394  2.116749 11.738747            0           0           0  
      0.000000  0.000000 11.736523            0           0           0  
      6.350357  4.233571  9.616786            0           0           0  
      0.000000  6.350357  9.616786            0           0           0  
      6.350357  6.350357  7.500000            0           0           0  
      0.000000  4.233571  7.500000            0           0           0  
      6.362072  4.233571 13.896411            0           0           0  
      0.000000  6.353101 13.892544            0           0           0  
      6.350394  6.350394 11.738747            0           0           0  
      0.000000  4.233571 11.737223            0           0           0  

 Finite differences POTIM=   1.0000000000000000E-002
     LOOP+:  cpu time     35.6839: real time     35.8916
    4ORBIT:  cpu time      0.0000: real time      0.0000

 total amount of memory used by VASP MPI-rank0    67097. kBytes
=======================================================================

   base      :      30000. kBytes
   nonl-proj :      17582. kBytes
   fftplans  :       4925. kBytes
   grid      :       8190. kBytes
   one-center:         73. kBytes
   wavefun   :       6327. kBytes

  
  
 General timing and accounting informations for this job:
 ========================================================
  
                  Total CPU time used (sec):      542.905
                            User time (sec):      539.897
                          System time (sec):        3.008
                         Elapsed time (sec):      555.967
  
                   Maximum memory used (kb):      161636.
                   Average memory used (kb):          N/A
  
                          Minor page faults:        35819
                          Major page faults:           50
                 Voluntary context switches:        20259
