 vasp.6.3.0 20Jan22 (build Mar 11 2022 13:48:16) complex                        
  
 executed on             LinuxIFC date 2023.12.26  17:18:32
 running on  304 total cores
 distrk:  each k-point on  304 cores,    1 groups
 distr:  one band on NCORE=   2 cores,  152 groups


--------------------------------------------------------------------------------------------------------


 INCAR:
   SYSTEM = MgO-rocksalt
   ISMEAR = 0
   SIGMA = 0.05
   EDIFF = 1E-5
   ALGO = ALL
   ISTART = 0
   IBRION = -1
   NSW = 0
   ISYM = 2
   ISIF = 2
   DIPOL = 0.5 0.5 0.5
   IDIPOL = 3
   LDIPOL = .TRUE.
   GGA = RE
   IVDW = 13
   VDW_S8 = 1.7468
   VDW_A1 = 0.5363
   VDW_A2 = 3.0726
   ENCUT = 600
   PREC = Accurate
   LASPH = .TRUE.
   LREAL = .FALSE.
   ISPIN = 1
   NELM = 200
   NELMIN = 8
   NCORE = 2
   KPAR = 1
   LWAVE = .FALSE.
   LCHARG = .FALSE.

 POTCAR:    PAW_PBE Mg_pv 13Apr2007               
 POTCAR:    PAW_PBE O 08Apr2002                   
 -----------------------------------------------------------------------------
|                                                                             |
|           W    W    AA    RRRRR   N    N  II  N    N   GGGG   !!!           |
|           W    W   A  A   R    R  NN   N  II  NN   N  G    G  !!!           |
|           W    W  A    A  R    R  N N  N  II  N N  N  G       !!!           |
|           W WW W  AAAAAA  RRRRR   N  N N  II  N  N N  G  GGG   !            |
|           WW  WW  A    A  R   R   N   NN  II  N   NN  G    G                |
|           W    W  A    A  R    R  N    N  II  N    N   GGGG   !!!           |
|                                                                             |
|     For optimal performance we recommend to set                             |
|       NCORE = 2 up to number-of-cores-per-socket                            |
|     NCORE specifies how many cores store one orbital (NPAR=cpu/NCORE).      |
|     This setting can greatly improve the performance of VASP for DFT.       |
|     The default, NCORE=1 might be grossly inefficient on modern             |
|     multi-core architectures or massively parallel machines. Do your        |
|     own testing! More info at https://www.vasp.at/wiki/index.php/NCORE      |
|     Unfortunately you need to use the default for GW and RPA                |
|     calculations (for HF NCORE is supported but not extensively tested      |
|     yet).                                                                   |
|                                                                             |
 -----------------------------------------------------------------------------

 POTCAR:    PAW_PBE Mg_pv 13Apr2007               
   SHA256 =  f474ac0dd33840b9ae76c01d57fea79fdf77cdfbb07d5ade72c65f83c709b62b Mg_pv/POTCAR          
   COPYR  = (c) Copyright 13Apr2007 Georg Kresse                                                    
   COPYR  = This file is part of the software VASP. Any use, copying, and all other rights are regul
   COPYR  = If you do not have a valid VASP license, you may not use, copy or distribute this file. 
   VRHFIN =Mg: p6s2                                                                                 
   LEXCH  = PE                                                                                      
   EATOM  =  1056.7344 eV,   77.6678 Ry                                                             
                                                                                                    
   TITEL  = PAW_PBE Mg_pv 13Apr2007                                                                 
   LULTRA =        F    use ultrasoft PP ?                                                          
   IUNSCR =        1    unscreen: 0-lin 1-nonlin 2-no                                               
   RPACOR =    1.500    partial core radius                                                         
   POMASS =   24.305; ZVAL   =    8.000    mass and valenz                                          
   RCORE  =    2.000    outmost cutoff radius                                                       
   RWIGS  =    2.000; RWIGS  =    1.058    wigner-seitz radius (au A)                               
   ENMAX  =  403.929; ENMIN  =  302.947 eV                                                          
   RCLOC  =    1.506    cutoff for local pot                                                        
   LCOR   =        T    correct aug charges                                                         
   LPAW   =        T    paw PP                                                                      
   EAUG   =  758.780                                                                                
   DEXC   =    0.000                                                                                
   RMAX   =    2.045    core radius for proj-oper                                                   
   RAUG   =    1.300    factor for augmentation sphere                                              
   RDEP   =    2.025    radius for radial grids                                                     
   RDEPT  =    1.557    core radius for aug-charge                                                  
                                                                                                    
   Atomic configuration                                                                             
    5 entries                                                                                       
     n  l   j            E        occ.                                                              
     1  0  0.50     -1259.6230   2.0000                                                             
     2  0  0.50       -79.8442   2.0000                                                             
     2  1  1.50       -46.6121   6.0000                                                             
     3  0  0.50        -4.7055   2.0000                                                             
     3  2  1.50        -1.3606   0.0000                                                             
   Description                                                                                      
     l       E           TYP  RCUT    TYP  RCUT                                                     
     1    -46.6121073     23  1.600                                                                 
     1      2.7211652     23  1.600                                                                 
     0     -4.7054661     23  2.000                                                                 
     0     61.2262170     23  2.000                                                                 
     2     -1.3605826     23  2.000                                                                 
  local pseudopotential read in
  partial core-charges read in
  partial kinetic energy density read in
  atomic valenz-charges read in
  non local Contribution for L=           1  read in
    real space projection operators read in
  non local Contribution for L=           1  read in
    real space projection operators read in
  non local Contribution for L=           0  read in
    real space projection operators read in
  non local Contribution for L=           0  read in
    real space projection operators read in
  non local Contribution for L=           2  read in
    real space projection operators read in
    PAW grid and wavefunctions read in
 
   number of l-projection  operators is LMAX  =           5
   number of lm-projection operators is LMMAX =          13
 
 POTCAR:    PAW_PBE O 08Apr2002                   
   SHA256 =  818f92134a0a090dccd8ba1447fa70422a3b330e708bb4f08108d8ae51209ddf O/POTCAR              
   COPYR  = (c) Copyright 08Apr2002 Georg Kresse                                                    
   COPYR  = This file is part of the software VASP. Any use, copying, and all other rights are regul
   COPYR  = If you do not have a valid VASP license, you may not use, copy or distribute this file. 
   VRHFIN =O: s2p4                                                                                  
   LEXCH  = PE                                                                                      
   EATOM  =   432.3788 eV,   31.7789 Ry                                                             
                                                                                                    
   TITEL  = PAW_PBE O 08Apr2002                                                                     
   LULTRA =        F    use ultrasoft PP ?                                                          
   IUNSCR =        1    unscreen: 0-lin 1-nonlin 2-no                                               
   RPACOR =    1.200    partial core radius                                                         
   POMASS =   16.000; ZVAL   =    6.000    mass and valenz                                          
   RCORE  =    1.520    outmost cutoff radius                                                       
   RWIGS  =    1.550; RWIGS  =    0.820    wigner-seitz radius (au A)                               
   ENMAX  =  400.000; ENMIN  =  300.000 eV                                                          
   ICORE  =        2    local potential                                                             
   LCOR   =        T    correct aug charges                                                         
   LPAW   =        T    paw PP                                                                      
   EAUG   =  605.392                                                                                
   DEXC   =    0.000                                                                                
   RMAX   =    1.553    core radius for proj-oper                                                   
   RAUG   =    1.300    factor for augmentation sphere                                              
   RDEP   =    1.550    radius for radial grids                                                     
   RDEPT  =    1.329    core radius for aug-charge                                                  
                                                                                                    
   Atomic configuration                                                                             
    4 entries                                                                                       
     n  l   j            E        occ.                                                              
     1  0  0.50      -514.6923   2.0000                                                             
     2  0  0.50       -23.9615   2.0000                                                             
     2  1  0.50        -9.0305   4.0000                                                             
     3  2  1.50        -9.5241   0.0000                                                             
   Description                                                                                      
     l       E           TYP  RCUT    TYP  RCUT                                                     
     0    -23.9615318     23  1.200                                                                 
     0     -9.5240782     23  1.200                                                                 
     1     -9.0304911     23  1.520                                                                 
     1      8.1634956     23  1.520                                                                 
     2     -9.5240782      7  1.500                                                                 
  local pseudopotential read in
  partial core-charges read in
  partial kinetic energy density read in
  kinetic energy density of atom read in
  atomic valenz-charges read in
  non local Contribution for L=           0  read in
    real space projection operators read in
  non local Contribution for L=           0  read in
    real space projection operators read in
  non local Contribution for L=           1  read in
    real space projection operators read in
  non local Contribution for L=           1  read in
    real space projection operators read in
    PAW grid and wavefunctions read in
 
   number of l-projection  operators is LMAX  =           4
   number of lm-projection operators is LMMAX =           8
 
 -----------------------------------------------------------------------------
|                                                                             |
|               ----> ADVICE to this user running VASP <----                  |
|                                                                             |
|     You have a (more or less) 'large supercell' and for larger cells it     |
|     might be more efficient to use real-space projection operators.         |
|     Therefore, try LREAL= Auto in the INCAR file.                           |
|     Mind: For very accurate calculation, you might also keep the            |
|     reciprocal projection scheme (i.e. LREAL=.FALSE.).                      |
|                                                                             |
 -----------------------------------------------------------------------------

 -----------------------------------------------------------------------------
|                                                                             |
|               ----> ADVICE to this user running VASP <----                  |
|                                                                             |
|     You enforced a specific xc type in the INCAR file but a different       |
|     type was found in the POTCAR file.                                      |
|     I HOPE YOU KNOW WHAT YOU ARE DOING!                                     |
|                                                                             |
 -----------------------------------------------------------------------------

  PAW_PBE Mg_pv 13Apr2007               :
 energy of atom  1       EATOM=-1056.7344
 kinetic energy error for atom=    0.0221 (will be added to EATOM!!)
  PAW_PBE O 08Apr2002                   :
 energy of atom  2       EATOM= -432.3788
 kinetic energy error for atom=    0.0168 (will be added to EATOM!!)
 
 
 POSCAR: Mg  O
  positions in direct lattice
  No initial velocities read in
 -----------------------------------------------------------------------------
|                                                                             |
|           W    W    AA    RRRRR   N    N  II  N    N   GGGG   !!!           |
|           W    W   A  A   R    R  NN   N  II  NN   N  G    G  !!!           |
|           W    W  A    A  R    R  N N  N  II  N N  N  G       !!!           |
|           W WW W  AAAAAA  RRRRR   N  N N  II  N  N N  G  GGG   !            |
|           WW  WW  A    A  R   R   N   NN  II  N   NN  G    G                |
|           W    W  A    A  R    R  N    N  II  N    N   GGGG   !!!           |
|                                                                             |
|     Specifying the vdW parameters                                           |
|     VDW_S8 = 1.747                                                          |
|     VDW_A1 = 0.536                                                          |
|     VDW_A2 = 3.073                                                          |
|     in the INCAR file will overwrite the defaults for revpbe. Please        |
|     make sure that is what you intended.                                    |
|                                                                             |
 -----------------------------------------------------------------------------

 exchange correlation table for  LEXCH =       40
   RHO(1)=    0.500       N(1)  =     2000
   RHO(2)=  100.500       N(2)  =     4000
 


--------------------------------------------------------------------------------------------------------


 ion  position               nearest neighbor table
   1  0.000  0.750  0.352-  33 2.11  35 2.11  36 2.11  43 2.11  52 2.11
   2  0.250  0.000  0.352-  34 2.11  35 2.11  36 2.11  44 2.11  51 2.11
   3  0.000  0.000  0.451-  35 2.11  34 2.11  33 2.11  41 2.11  50 2.11  39 2.12
   4  0.250  0.750  0.451-  36 2.11  34 2.11  33 2.11  42 2.11  49 2.11  40 2.12
   5  0.000  0.750  0.550-  47 2.11  40 2.11  56 2.11  39 2.11  33 2.12  37 2.15
   6  0.250  0.000  0.550-  55 2.11  48 2.11  40 2.11  39 2.11  34 2.12  38 2.15
   7  0.000  0.000  0.649-  37 2.11  38 2.11  45 2.11  54 2.11  39 2.11
   8  0.250  0.750  0.649-  40 2.11  38 2.11  37 2.11  46 2.11  53 2.11
   9  0.000  0.250  0.352-  41 2.11  35 2.11  43 2.11  44 2.11  60 2.11
  10  0.250  0.500  0.352-  42 2.11  36 2.11  43 2.11  44 2.11  59 2.11
  11  0.000  0.500  0.451-  43 2.11  41 2.11  42 2.11  33 2.11  58 2.11  47 2.12
  12  0.250  0.250  0.451-  44 2.11  41 2.11  42 2.11  34 2.11  57 2.11  48 2.12
  13  0.000  0.250  0.550-  47 2.11  48 2.11  64 2.11  39 2.11  41 2.12  45 2.15
  14  0.250  0.500  0.550-  63 2.11  48 2.11  40 2.11  47 2.11  42 2.13  46 2.15
  15  0.000  0.500  0.649-  46 2.10  62 2.10  47 2.11  45 2.11  37 2.11
  16  0.250  0.250  0.649-  48 2.11  45 2.11  38 2.11  46 2.11  61 2.11
  17  0.500  0.750  0.352-  49 2.11  36 2.11  51 2.11  52 2.11  59 2.11
  18  0.750  0.000  0.352-  50 2.11  35 2.11  51 2.11  52 2.11  60 2.11
  19  0.500  0.000  0.451-  51 2.11  49 2.11  50 2.11  34 2.11  57 2.11  55 2.12
  20  0.750  0.750  0.451-  52 2.11  49 2.11  50 2.11  33 2.11  58 2.11  56 2.12
  21  0.500  0.750  0.550-  63 2.11  56 2.11  40 2.11  55 2.11  49 2.13  53 2.15
  22  0.750  0.000  0.550-  55 2.11  56 2.11  64 2.11  39 2.11  50 2.12  54 2.15
  23  0.500  0.000  0.649-  53 2.10  61 2.10  55 2.11  38 2.11  54 2.11
  24  0.750  0.750  0.649-  56 2.11  54 2.11  37 2.11  53 2.11  62 2.11
  25  0.500  0.250  0.352-  57 2.11  51 2.11  44 2.11  59 2.11  60 2.11
  26  0.750  0.500  0.352-  58 2.11  52 2.11  43 2.11  59 2.11  60 2.11
  27  0.500  0.500  0.451-  59 2.11  49 2.11  57 2.11  58 2.11  42 2.11  63 2.13
  28  0.750  0.250  0.451-  60 2.11  50 2.11  57 2.11  58 2.11  41 2.11  64 2.12
  29  0.500  0.250  0.550-  63 2.11  48 2.11  64 2.11  55 2.11  57 2.13  61 2.15
  30  0.750  0.500  0.550-  63 2.11  56 2.11  64 2.11  47 2.11  58 2.13  62 2.15
  31  0.500  0.500  0.651-  46 2.12  53 2.12  61 2.12  62 2.12  63 2.14
  32  0.750  0.250  0.649-  64 2.11  54 2.11  45 2.11  62 2.11  61 2.11
  33  0.000  0.750  0.451-   1 2.11   3 2.11   4 2.11  11 2.11  20 2.11   5 2.12
  34  0.250  0.000  0.451-   2 2.11   3 2.11   4 2.11  12 2.11  19 2.11   6 2.12
  35  0.000  0.000  0.352-   3 2.11   2 2.11   1 2.11   9 2.11  18 2.11
  36  0.250  0.750  0.352-   4 2.11   2 2.11   1 2.11  10 2.11  17 2.11
  37  0.000  0.750  0.651-   7 2.11   8 2.11  24 2.11  15 2.11   5 2.15
  38  0.250  0.000  0.651-   7 2.11   8 2.11  16 2.11  23 2.11   6 2.15
  39  0.000  0.000  0.550-   7 2.11   6 2.11   5 2.11  13 2.11  22 2.11   3 2.12
  40  0.250  0.750  0.550-   8 2.11   6 2.11   5 2.11  14 2.11  21 2.11   4 2.12
  41  0.000  0.250  0.451-   9 2.11   3 2.11  11 2.11  12 2.11  28 2.11  13 2.12
  42  0.250  0.500  0.451-  10 2.11   4 2.11  11 2.11  12 2.11  27 2.11  14 2.13
  43  0.000  0.500  0.352-  11 2.11   9 2.11  10 2.11   1 2.11  26 2.11
  44  0.250  0.250  0.352-  12 2.11   9 2.11  10 2.11   2 2.11  25 2.11
  45  0.000  0.250  0.651-   7 2.11  16 2.11  32 2.11  15 2.11  13 2.15
  46  0.249  0.500  0.651-  15 2.10   8 2.11  16 2.11  31 2.12  14 2.15
  47  0.000  0.500  0.550-  15 2.11  13 2.11   5 2.11  14 2.11  30 2.11  11 2.12
  48  0.250  0.250  0.550-  16 2.11  13 2.11   6 2.11  14 2.11  29 2.11  12 2.12
  49  0.500  0.750  0.451-  17 2.11   4 2.11  19 2.11  20 2.11  27 2.11  21 2.13
  50  0.750  0.000  0.451-  18 2.11   3 2.11  19 2.11  20 2.11  28 2.11  22 2.12
  51  0.500  0.000  0.352-  19 2.11  17 2.11  18 2.11   2 2.11  25 2.11
  52  0.750  0.750  0.352-  20 2.11  17 2.11  18 2.11   1 2.11  26 2.11
  53  0.500  0.751  0.651-  23 2.10   8 2.11  24 2.11  31 2.12  21 2.15
  54  0.750  0.000  0.651-   7 2.11  24 2.11  32 2.11  23 2.11  22 2.15
  55  0.500  0.000  0.550-  23 2.11  22 2.11   6 2.11  21 2.11  29 2.11  19 2.12
  56  0.750  0.750  0.550-  24 2.11  22 2.11   5 2.11  30 2.11  21 2.11  20 2.12
  57  0.500  0.250  0.451-  25 2.11  19 2.11  12 2.11  27 2.11  28 2.11  29 2.13
  58  0.750  0.500  0.451-  26 2.11  20 2.11  11 2.11  27 2.11  28 2.11  30 2.13
  59  0.500  0.500  0.352-  27 2.11  17 2.11  25 2.11  26 2.11  10 2.11
  60  0.750  0.250  0.352-  28 2.11  18 2.11  25 2.11  26 2.11   9 2.11
  61  0.500  0.249  0.651-  23 2.10  16 2.11  32 2.11  31 2.12  29 2.15
  62  0.751  0.500  0.651-  15 2.10  24 2.11  32 2.11  31 2.12  30 2.15
  63  0.500  0.500  0.550-  14 2.11  21 2.11  29 2.11  30 2.11  27 2.13  31 2.14
  64  0.750  0.250  0.550-  32 2.11  22 2.11  13 2.11  30 2.11  29 2.11  28 2.12
 
  LATTYP: Found a simple tetragonal cell.
 ALAT       =     8.4409846542
 C/A-ratio  =     2.5270438657
  
  Lattice vectors:
  
 A1 = (   8.4409846542,   0.0000000000,   0.0000000000)
 A2 = (   0.0000000000,   8.4409846542,   0.0000000000)
 A3 = (   0.0000000000,   0.0000000000,  21.3307384906)


Analysis of symmetry for initial positions (statically):
=====================================================================
 Subroutine PRICEL returns:
 Original cell was already a primitive cell.
 

 Routine SETGRP: Setting up the symmetry group for a 
 simple tetragonal supercell.


 Subroutine GETGRP returns: Found  8 space group operations
 (whereof  8 operations were pure point group operations)
 out of a pool of 16 trial point group operations.


The static configuration has the point symmetry C_4v.


Analysis of symmetry for dynamics (positions and initial velocities):
=====================================================================
 Subroutine PRICEL returns:
 Original cell was already a primitive cell.
 

 Routine SETGRP: Setting up the symmetry group for a 
 simple tetragonal supercell.


 Subroutine GETGRP returns: Found  8 space group operations
 (whereof  8 operations were pure point group operations)
 out of a pool of 16 trial point group operations.


The dynamic configuration has the point symmetry C_4v.


Analysis of constrained symmetry for selective dynamics:
=====================================================================
 Subroutine PRICEL returns:
 Original cell was already a primitive cell.
 

 Routine SETGRP: Setting up the symmetry group for a 
 simple tetragonal supercell.


 Subroutine GETGRP returns: Found  8 space group operations
 (whereof  8 operations were pure point group operations)
 out of a pool of 16 trial point group operations.


The constrained configuration has the point symmetry C_4v.


 Subroutine INISYM returns: Found  8 space group operations
 (whereof  8 operations are pure point group operations),
 and found     1 'primitive' translations


----------------------------------------------------------------------------------------

                                     Primitive cell                                     

  volume of cell :    1519.8199

  direct lattice vectors                    reciprocal lattice vectors
     8.440984654  0.000000000  0.000000000     0.118469591  0.000000000  0.000000000
     0.000000000  8.440984654  0.000000000     0.000000000  0.118469591  0.000000000
     0.000000000  0.000000000 21.330738491     0.000000000  0.000000000  0.046880702

  length of vectors
     8.440984654  8.440984654 21.330738491     0.118469591  0.118469591  0.046880702

  position of ions in fractional coordinates (direct lattice)
     0.000000000  0.750000000  0.351605267
     0.250000000  0.000000000  0.351605267
     0.000000000  0.000000000  0.450535089
     0.250000000  0.750000000  0.450535089
     0.000000000  0.749939268  0.550083239
     0.250060732  0.000000000  0.550083239
     0.000000000  0.000000000  0.648745309
     0.249858327  0.750141673  0.648569547
     0.000000000  0.250000000  0.351605267
     0.250000000  0.500000000  0.351605267
     0.000000000  0.500000000  0.450535089
     0.250000000  0.250000000  0.450535089
     0.000000000  0.250060732  0.550083239
     0.250378379  0.500000000  0.550219524
     0.000000000  0.500000000  0.648615280
     0.249858327  0.249858327  0.648569547
     0.500000000  0.750000000  0.351605267
     0.750000000  0.000000000  0.351605267
     0.500000000  0.000000000  0.450535089
     0.750000000  0.750000000  0.450535089
     0.500000000  0.749621621  0.550219524
     0.749939268  0.000000000  0.550083239
     0.500000000  0.000000000  0.648615280
     0.750141673  0.750141673  0.648569547
     0.500000000  0.250000000  0.351605267
     0.750000000  0.500000000  0.351605267
     0.500000000  0.500000000  0.450535089
     0.750000000  0.250000000  0.450535089
     0.500000000  0.250378379  0.550219524
     0.749621621  0.500000000  0.550219524
     0.500000000  0.500000000  0.650616960
     0.750141673  0.249858327  0.648569547
     0.000000000  0.750000000  0.450535089
     0.250000000  0.000000000  0.450535089
     0.000000000  0.000000000  0.351605267
     0.250000000  0.750000000  0.351605267
     0.000000000  0.750218533  0.650979255
     0.249781467  0.000000000  0.650979255
     0.000000000  0.000000000  0.549809890
     0.249945770  0.750054230  0.549859113
     0.000000000  0.250000000  0.450535089
     0.250000000  0.500000000  0.450535089
     0.000000000  0.500000000  0.351605267
     0.250000000  0.250000000  0.351605267
     0.000000000  0.249781467  0.650979255
     0.248822710  0.500000000  0.650882872
     0.000000000  0.500000000  0.549762666
     0.249945770  0.249945770  0.549859113
     0.500000000  0.750000000  0.450535089
     0.750000000  0.000000000  0.450535089
     0.500000000  0.000000000  0.351605267
     0.750000000  0.750000000  0.351605267
     0.500000000  0.751177290  0.650882872
     0.750218533  0.000000000  0.650979255
     0.500000000  0.000000000  0.549762666
     0.750054230  0.750054230  0.549859113
     0.500000000  0.250000000  0.450535089
     0.750000000  0.500000000  0.450535089
     0.500000000  0.500000000  0.351605267
     0.750000000  0.250000000  0.351605267
     0.500000000  0.248822710  0.650882872
     0.751177290  0.500000000  0.650882872
     0.500000000  0.500000000  0.550231357
     0.750054230  0.249945770  0.549859113

  ion indices of the primitive-cell ions
   primitive index   ion index
                 1           1
                 2           2
                 3           3
                 4           4
                 5           5
                 6           6
                 7           7
                 8           8
                 9           9
                10          10
                11          11
                12          12
                13          13
                14          14
                15          15
                16          16
                17          17
                18          18
                19          19
                20          20
                21          21
                22          22
                23          23
                24          24
                25          25
                26          26
                27          27
                28          28
                29          29
                30          30
                31          31
                32          32
                33          33
                34          34
                35          35
                36          36
                37          37
                38          38
                39          39
                40          40
                41          41
                42          42
                43          43
                44          44
                45          45
                46          46
                47          47
                48          48
                49          49
                50          50
                51          51
                52          52
                53          53
                54          54
                55          55
                56          56
                57          57
                58          58
                59          59
                60          60
                61          61
                62          62
                63          63
                64          64

----------------------------------------------------------------------------------------

 
 
 KPOINTS: pymatgen v2020.8.13 with grid density = 

Automatic generation of k-mesh.
 Grid dimensions read from file:
 generate k-points for:    2    2    1

 Generating k-lattice:

  Cartesian coordinates                     Fractional coordinates (reciprocal lattice)
     0.059234796  0.000000000  0.000000000     0.500000000  0.000000000  0.000000000
     0.000000000  0.059234796  0.000000000     0.000000000  0.500000000  0.000000000
     0.000000000  0.000000000  0.046880702     0.000000000  0.000000000  1.000000000

  Length of vectors
     0.059234796  0.059234796  0.046880702

  Shift w.r.t. Gamma in fractional coordinates (k-lattice)
     0.000000000  0.000000000  0.000000000

 
 Subroutine IBZKPT returns following result:
 ===========================================
 
 Found      3 irreducible k-points:
 
 Following reciprocal coordinates:
            Coordinates               Weight
  0.000000  0.000000  0.000000      1.000000
  0.500000  0.000000  0.000000      2.000000
  0.500000  0.500000  0.000000      1.000000
 
 Following cartesian coordinates:
            Coordinates               Weight
  0.000000  0.000000  0.000000      1.000000
  0.059235  0.000000  0.000000      2.000000
  0.059235  0.059235  0.000000      1.000000
 


--------------------------------------------------------------------------------------------------------




 Dimension of arrays:
   k-points           NKPTS =      3   k-points in BZ     NKDIM =      3   number of bands    NBANDS=    304
   number of dos      NEDOS =    301   number of ions     NIONS =     64
   non local maximal  LDIM  =      5   non local SUM 2l+1 LMDIM =     13
   total plane-waves  NPLWV = 882000
   max r-space proj   IRMAX =      1   max aug-charges    IRDMAX=  11635
   dimension x,y,z NGX =    70 NGY =   70 NGZ =  180
   dimension x,y,z NGXF=   140 NGYF=  140 NGZF=  360
   support grid    NGXF=   140 NGYF=  140 NGZF=  360
   ions per type =              32  32
   NGX,Y,Z   is equivalent  to a cutoff of  13.79, 13.79, 14.03 a.u.
   NGXF,Y,Z  is equivalent  to a cutoff of  27.57, 27.57, 28.06 a.u.

 SYSTEM =  MgO-rocksalt                            
 POSCAR =  Mg  O                                   

 Startparameter for this run:
   NWRITE =      2    write-flag & timer
   PREC   = accura    normal or accurate (medium, high low for compatibility)
   ISTART =      0    job   : 0-new  1-cont  2-samecut
   ICHARG =      2    charge: 1-file 2-atom 10-const
   ISPIN  =      1    spin polarized calculation?
   LNONCOLLINEAR =      F non collinear calculations
   LSORBIT =      F    spin-orbit coupling
   INIWAV =      1    electr: 0-lowe 1-rand  2-diag
   LASPH  =      T    aspherical Exc in radial PAW
 Electronic Relaxation 1
   ENCUT  =  600.0 eV  44.10 Ry    6.64 a.u.  16.86 16.86 42.60*2*pi/ulx,y,z
   ENINI  =  600.0     initial cutoff
   ENAUG  =  758.8 eV  augmentation charge cutoff
   NELM   =    200;   NELMIN=  8; NELMDL= -5     # of ELM steps 
   EDIFF  = 0.1E-04   stopping-criterion for ELM
   LREAL  =      F    real-space projection
   NLSPLINE    = F    spline interpolate recip. space projectors
   LCOMPAT=      F    compatible to vasp.4.4
   GGA_COMPAT  = T    GGA compatible to vasp.4.4-vasp.4.6
   LMAXPAW     = -100 max onsite density
   LMAXMIX     =    2 max onsite mixed and CHGCAR
   VOSKOWN=      0    Vosko Wilk Nusair interpolation
   ROPT   =    0.00000   0.00000
 Ionic relaxation
   EDIFFG = 0.1E-03   stopping-criterion for IOM
   NSW    =      0    number of steps for IOM
   NBLOCK =      1;   KBLOCK =      1    inner block; outer block 
   IBRION =     -1    ionic relax: 0-MD 1-quasi-New 2-CG
   NFREE  =      0    steps in history (QN), initial steepest desc. (CG)
   ISIF   =      2    stress and relaxation
   IWAVPR =     10    prediction:  0-non 1-charg 2-wave 3-comb
   ISYM   =      2    0-nonsym 1-usesym 2-fastsym
   LCORR  =      T    Harris-Foulkes like correction to forces

   POTIM  = 0.5000    time-step for ionic-motion
   TEIN   =    0.0    initial temperature
   TEBEG  =    0.0;   TEEND  =   0.0 temperature during run
   SMASS  =  -3.00    Nose mass-parameter (am)
   estimated Nose-frequenzy (Omega)   =  0.10E-29 period in steps = 0.13E+47 mass=  -0.163E-26a.u.
   SCALEE = 1.0000    scale energy and forces
   NPACO  =    256;   APACO  = 10.0  distance and # of slots for P.C.
   PSTRESS=    0.0 pullay stress

  Mass of Ions in am
   POMASS =  24.30 16.00
  Ionic Valenz
   ZVAL   =   8.00  6.00
  Atomic Wigner-Seitz radii
   RWIGS  =  -1.00 -1.00
  virtual crystal weights 
   VCA    =   1.00  1.00
   NELECT =     448.0000    total number of electrons
   NUPDOWN=      -1.0000    fix difference up-down

 DOS related values:
   EMIN   =  10.00;   EMAX   =-10.00  energy-range for DOS
   EFERMI =   0.00
   ISMEAR =     0;   SIGMA  =   0.05  broadening in eV -4-tet -1-fermi 0-gaus

 Electronic relaxation 2 (details)
   IALGO  =     58    algorithm
   LDIAG  =      T    sub-space diagonalisation (order eigenvalues)
   LSUBROT=      F    optimize rotation matrix (better conditioning)
   TURBO    =      0    0=normal 1=particle mesh
   IRESTART =      0    0=no restart 2=restart with 2 vectors
   NREBOOT  =      0    no. of reboots
   NMIN     =      0    reboot dimension
   EREF     =   0.00    reference energy to select bands
   IMIX   =      4    mixing-type and parameters
     AMIX     =   0.40;   BMIX     =  1.00
     AMIX_MAG =   1.60;   BMIX_MAG =  1.00
     AMIN     =   0.10
     WC   =   100.;   INIMIX=   1;  MIXPRE=   1;  MAXMIX= -45

 Intra band minimization:
   WEIMIN = 0.0000     energy-eigenvalue tresh-hold
   EBREAK =  0.82E-08  absolut break condition
   DEPER  =   0.30     relativ break condition  

   TIME   =   0.40     timestep for ELM

  volume/ion in A,a.u.               =      23.75       160.25
  Fermi-wavevector in a.u.,A,eV,Ry     =   1.089524  2.058902 16.150966  1.187063
  Thomas-Fermi vector in A             =   2.225729
 
 Write flags
   LWAVE        =      F    write WAVECAR
   LDOWNSAMPLE  =      F    k-point downsampling of WAVECAR
   LCHARG       =      F    write CHGCAR
   LVTOT        =      F    write LOCPOT, total local potential
   LVHAR        =      F    write LOCPOT, Hartree potential only
   LELF         =      F    write electronic localiz. function (ELF)
   LORBIT       =      0    0 simple, 1 ext, 2 COOP (PROOUT), +10 PAW based schemes


 Dipole corrections
   LMONO  =      F    monopole corrections only (constant potential shift)
   LDIPOL =      T    correct potential (dipole corrections)
   IDIPOL =      3    1-x, 2-y, 3-z, 4-all directions 
   EPSILON=  1.0000000 bulk dielectric constant

 Exchange correlation treatment:
   GGA     =    RE    GGA type
   LEXCH   =    40    internal setting for exchange type
   LIBXC   =     F    Libxc                    
   VOSKOWN =     0    Vosko Wilk Nusair interpolation
   LHFCALC =     F    Hartree Fock is set to
   LHFONE  =     F    Hartree Fock one center treatment
   AEXX    =    0.0000 exact exchange contribution

 Linear response parameters
   LEPSILON=     F    determine dielectric tensor
   LRPA    =     F    only Hartree local field effects (RPA)
   LNABLA  =     F    use nabla operator in PAW spheres
   LVEL    =     F    velocity operator in full k-point grid
   CSHIFT  =0.1000    complex shift for real part using Kramers Kronig
   OMEGAMAX=  -1.0    maximum frequency
   DEG_THRESHOLD= 0.2000000E-02 threshold for treating states as degnerate
   RTIME   =   -0.100 relaxation time in fs
  (WPLASMAI=    0.000 imaginary part of plasma frequency in eV, 0.658/RTIME)
   DFIELD  = 0.0000000 0.0000000 0.0000000 field for delta impulse in time
 
  Optional k-point grid parameters
   LKPOINTS_OPT  =     F    use optional k-point grid
   KPOINTS_OPT_MODE=     1    mode for optional k-point grid
 
 Orbital magnetization related:
   ORBITALMAG=     F  switch on orbital magnetization
   LCHIMAG   =     F  perturbation theory with respect to B field
   DQ        =  0.001000  dq finite difference perturbation B field
   LLRAUG    =     F  two centre corrections for induced B field



--------------------------------------------------------------------------------------------------------


 Static calculation
 charge density and potential will be updated during run
 non-spin polarized calculation
 Conjugate gradient for all bands (Freysoldt, et al. PRB 79, 241103 (2009))
 preconditioned conjugated gradient                                        
 perform sub-space diagonalisation
    before iterative eigenvector-optimisation
 modified Broyden-mixing scheme, WC =      100.0
 initial mixing is a Kerker type mixing with AMIX =  0.4000 and BMIX =      1.0000
 Hartree-type preconditioning will be used
 using additional bands           80
 reciprocal scheme for non local part
 use partial core corrections
 no Harris-corrections to forces 
 use gradient corrections 
 use of overlap-Matrix (Vanderbilt PP)
 Gauss-broadening in eV      SIGMA  =   0.05


--------------------------------------------------------------------------------------------------------


  energy-cutoff  :      600.00
  volume of cell :     1519.82
      direct lattice vectors                 reciprocal lattice vectors
     8.440984654  0.000000000  0.000000000     0.118469591  0.000000000  0.000000000
     0.000000000  8.440984654  0.000000000     0.000000000  0.118469591  0.000000000
     0.000000000  0.000000000 21.330738491     0.000000000  0.000000000  0.046880702

  length of vectors
     8.440984654  8.440984654 21.330738491     0.118469591  0.118469591  0.046880702


 
 k-points in units of 2pi/SCALE and weight: pymatgen v2020.8.13 with grid density = 
   0.00000000  0.00000000  0.00000000       0.250
   0.05923480  0.00000000  0.00000000       0.500
   0.05923480  0.05923480  0.00000000       0.250
 
 k-points in reciprocal lattice and weights: pymatgen v2020.8.13 with grid density = 
   0.00000000  0.00000000  0.00000000       0.250
   0.50000000  0.00000000  0.00000000       0.500
   0.50000000  0.50000000  0.00000000       0.250
 
 position of ions in fractional coordinates (direct lattice) 
   0.00000000  0.75000000  0.35160527
   0.25000000  0.00000000  0.35160527
   0.00000000  0.00000000  0.45053509
   0.25000000  0.75000000  0.45053509
   0.00000000  0.74993927  0.55008324
   0.25006073  0.00000000  0.55008324
   0.00000000  0.00000000  0.64874531
   0.24985833  0.75014167  0.64856955
   0.00000000  0.25000000  0.35160527
   0.25000000  0.50000000  0.35160527
   0.00000000  0.50000000  0.45053509
   0.25000000  0.25000000  0.45053509
   0.00000000  0.25006073  0.55008324
   0.25037838  0.50000000  0.55021952
   0.00000000  0.50000000  0.64861528
   0.24985833  0.24985833  0.64856955
   0.50000000  0.75000000  0.35160527
   0.75000000  0.00000000  0.35160527
   0.50000000  0.00000000  0.45053509
   0.75000000  0.75000000  0.45053509
   0.50000000  0.74962162  0.55021952
   0.74993927  0.00000000  0.55008324
   0.50000000  0.00000000  0.64861528
   0.75014167  0.75014167  0.64856955
   0.50000000  0.25000000  0.35160527
   0.75000000  0.50000000  0.35160527
   0.50000000  0.50000000  0.45053509
   0.75000000  0.25000000  0.45053509
   0.50000000  0.25037838  0.55021952
   0.74962162  0.50000000  0.55021952
   0.50000000  0.50000000  0.65061696
   0.75014167  0.24985833  0.64856955
   0.00000000  0.75000000  0.45053509
   0.25000000  0.00000000  0.45053509
   0.00000000  0.00000000  0.35160527
   0.25000000  0.75000000  0.35160527
   0.00000000  0.75021853  0.65097926
   0.24978147  0.00000000  0.65097926
   0.00000000  0.00000000  0.54980989
   0.24994577  0.75005423  0.54985911
   0.00000000  0.25000000  0.45053509
   0.25000000  0.50000000  0.45053509
   0.00000000  0.50000000  0.35160527
   0.25000000  0.25000000  0.35160527
   0.00000000  0.24978147  0.65097926
   0.24882271  0.50000000  0.65088287
   0.00000000  0.50000000  0.54976267
   0.24994577  0.24994577  0.54985911
   0.50000000  0.75000000  0.45053509
   0.75000000  0.00000000  0.45053509
   0.50000000  0.00000000  0.35160527
   0.75000000  0.75000000  0.35160527
   0.50000000  0.75117729  0.65088287
   0.75021853  0.00000000  0.65097926
   0.50000000  0.00000000  0.54976267
   0.75005423  0.75005423  0.54985911
   0.50000000  0.25000000  0.45053509
   0.75000000  0.50000000  0.45053509
   0.50000000  0.50000000  0.35160527
   0.75000000  0.25000000  0.35160527
   0.50000000  0.24882271  0.65088287
   0.75117729  0.50000000  0.65088287
   0.50000000  0.50000000  0.55023136
   0.75005423  0.24994577  0.54985911
 
 position of ions in cartesian coordinates  (Angst):
   0.00000000  6.33073849  7.50000000
   2.11024616  0.00000000  7.50000000
   0.00000000  0.00000000  9.61024616
   2.11024616  6.33073849  9.61024616
   0.00000000  6.33022585 11.73368172
   2.11075880  0.00000000 11.73368172
   0.00000000  0.00000000 13.83821654
   2.10905031  6.33193435 13.83446740
   0.00000000  2.11024616  7.50000000
   2.11024616  4.22049233  7.50000000
   0.00000000  4.22049233  9.61024616
   2.11024616  2.11024616  9.61024616
   0.00000000  2.11075880 11.73368172
   2.11344006  4.22049233 11.73658877
   0.00000000  4.22049233 13.83544293
   2.10905031  2.10905031 13.83446740
   4.22049233  6.33073849  7.50000000
   6.33073849  0.00000000  7.50000000
   4.22049233  0.00000000  9.61024616
   6.33073849  6.33073849  9.61024616
   4.22049233  6.32754460 11.73658877
   6.33022585  0.00000000 11.73368172
   4.22049233  0.00000000 13.83544293
   6.33193435  6.33193435 13.83446740
   4.22049233  2.11024616  7.50000000
   6.33073849  4.22049233  7.50000000
   4.22049233  4.22049233  9.61024616
   6.33073849  2.11024616  9.61024616
   4.22049233  2.11344006 11.73658877
   6.32754460  4.22049233 11.73658877
   4.22049233  4.22049233 13.87814023
   6.33193435  2.10905031 13.83446740
   0.00000000  6.33073849  9.61024616
   2.11024616  0.00000000  9.61024616
   0.00000000  0.00000000  7.50000000
   2.11024616  6.33073849  7.50000000
   0.00000000  6.33258312 13.88586825
   2.10840153  0.00000000 13.88586825
   0.00000000  0.00000000 11.72785099
   2.10978841  6.33119624 11.72890095
   0.00000000  2.11024616  9.61024616
   2.11024616  4.22049233  9.61024616
   0.00000000  4.22049233  7.50000000
   2.11024616  2.11024616  7.50000000
   0.00000000  2.10840153 13.88586825
   2.10030867  4.22049233 13.88381232
   0.00000000  4.22049233 11.72684365
   2.10978841  2.10978841 11.72890095
   4.22049233  6.33073849  9.61024616
   6.33073849  0.00000000  9.61024616
   4.22049233  0.00000000  7.50000000
   6.33073849  6.33073849  7.50000000
   4.22049233  6.34067598 13.88381232
   6.33258312  0.00000000 13.88586825
   4.22049233  0.00000000 11.72684365
   6.33119624  6.33119624 11.72890095
   4.22049233  2.11024616  9.61024616
   6.33073849  4.22049233  9.61024616
   4.22049233  4.22049233  7.50000000
   6.33073849  2.11024616  7.50000000
   4.22049233  2.10030867 13.88381232
   6.34067598  4.22049233 13.88381232
   4.22049233  4.22049233 11.73684118
   6.33119624  2.10978841 11.72890095
 


--------------------------------------------------------------------------------------------------------


 k-point   1 :   0.0000 0.0000 0.0000  plane waves:   50745
 k-point   2 :   0.5000 0.0000 0.0000  plane waves:   50798
 k-point   3 :   0.5000 0.5000 0.0000  plane waves:   50752

 maximum and minimum number of plane-waves per node :     25438    25340

 maximum number of plane-waves:     50798
 maximum index in each direction: 
   IXMAX=   16   IYMAX=   16   IZMAX=   42
   IXMIN=  -17   IYMIN=  -17   IZMIN=  -42


 parallel 3D FFT for wavefunctions:
    minimum data exchange during FFTs selected (reduces bandwidth)
 parallel 3D FFT for charge:
    minimum data exchange during FFTs selected (reduces bandwidth)


 total amount of memory used by VASP MPI-rank0   114954. kBytes
=======================================================================

   base      :      30000. kBytes
   nonl-proj :      42083. kBytes
   fftplans  :      14615. kBytes
   grid      :      20512. kBytes
   one-center:        259. kBytes
   wavefun   :       7485. kBytes
 
     INWAV:  cpu time      0.0000: real time      0.0000
 Broyden mixing: mesh for mixing (old mesh)
   NGX = 33   NGY = 33   NGZ = 85
  (NGX  =140   NGY  =140   NGZ  =360)
  gives a total of  92565 points

 initial charge density was supplied:
 charge density of overlapping atoms calculated
 number of electron     448.0000000 magnetization 
 keeping initial charge density in first step


--------------------------------------------------------------------------------------------------------


 Maximum index for augmentation-charges          608 (set IRDMAX)


--------------------------------------------------------------------------------------------------------


 First call to EWALD:  gamma=   0.154
 Maximum number of real-space cells 4x 4x 2
 Maximum number of reciprocal cells 2x 2x 5

    FEWALD:  cpu time      0.0015: real time      0.0015


--------------------------------------- Iteration      1(   1)  ---------------------------------------


    POTLOK:  cpu time      0.1083: real time      0.1086
    SETDIJ:  cpu time      0.0818: real time      0.0820
    TRIAL :  cpu time      3.2640: real time      3.2781
    CORREC:  cpu time      0.0003: real time      0.0003
    --------------------------------------------
      LOOP:  cpu time      3.4578: real time      3.4736

 eigenvalue-minimisations  :  2280
 total energy-change (2. order) : 0.3316114E+04  (-0.3072417E+05)
 number of electron     448.0000000 magnetization 
 augmentation part      448.0000000 magnetization 

 DIPCOR: dipole corrections for dipol
 direction  3 min pos     1,
 dipolmoment           0.000000      0.000000     -0.000006 electrons x Angstroem
 Tr[quadrupol]     -5963.452449

 energy correction for charged system         0.000000 eV
 dipol+quadrupol energy correction           -0.000000 eV
 added-field ion interaction          0.000003 eV  (added to PSCEN)


 Free energy of the ion-electron system (eV)
  ---------------------------------------------------
  alpha Z        PSCENC =       875.25928826
  Ewald energy   TEWEN  =    140467.92172078
  -Hartree energ DENC   =   -175972.37177747
  -exchange      EXHF   =         0.00000000
  -V(xc)+E(xc)   XCENC  =      1727.22110813
  PAW double counting   =     31885.32831381   -35670.53061943
  entropy T*S    EENTRO =        -0.02734412
  eigenvalues    EBANDS =     -7614.12750324
  atomic energy  EATOM  =     47617.44106709
  ---------------------------------------------------
  free energy    TOTEN  =      3316.11425381 eV

  energy without entropy =     3316.14159793  energy(sigma->0) =     3316.12792587


--------------------------------------------------------------------------------------------------------




--------------------------------------- Iteration      1(   2)  ---------------------------------------


    TRIAL :  cpu time      3.1498: real time      3.1631
    CORREC:  cpu time      0.0001: real time      0.0001
    --------------------------------------------
      LOOP:  cpu time      3.1505: real time      3.1691

 eigenvalue-minimisations  :  2280
 total energy-change (2. order) :-0.3536054E+04  (-0.3522439E+04)
 number of electron     448.0000000 magnetization 
 augmentation part      448.0000000 magnetization 

 DIPCOR: dipole corrections for dipol
 direction  3 min pos     1,
 dipolmoment           0.000000      0.000000     -0.000006 electrons x Angstroem
 Tr[quadrupol]     -5963.452449

 energy correction for charged system         0.000000 eV
 dipol+quadrupol energy correction           -0.000000 eV
 added-field ion interaction          0.000003 eV  (added to PSCEN)


 Free energy of the ion-electron system (eV)
  ---------------------------------------------------
  alpha Z        PSCENC =       875.25928826
  Ewald energy   TEWEN  =    140467.92172078
  -Hartree energ DENC   =   -175972.37177747
  -exchange      EXHF   =         0.00000000
  -V(xc)+E(xc)   XCENC  =      1727.22110813
  PAW double counting   =     31885.32831381   -35670.53061943
  entropy T*S    EENTRO =        -0.00000000
  eigenvalues    EBANDS =    -11150.20887983
  atomic energy  EATOM  =     47617.44106709
  ---------------------------------------------------
  free energy    TOTEN  =      -219.93977866 eV

  energy without entropy =     -219.93977866  energy(sigma->0) =     -219.93977866


--------------------------------------------------------------------------------------------------------




--------------------------------------- Iteration      1(   3)  ---------------------------------------


    TRIAL :  cpu time      4.2942: real time      4.3114
    CORREC:  cpu time      0.0001: real time      0.0001
    --------------------------------------------
      LOOP:  cpu time      4.2945: real time      4.3117

 eigenvalue-minimisations  :  2736
 total energy-change (2. order) :-0.1952224E+03  (-0.1949104E+03)
 number of electron     448.0000000 magnetization 
 augmentation part      448.0000000 magnetization 

 DIPCOR: dipole corrections for dipol
 direction  3 min pos     1,
 dipolmoment           0.000000      0.000000     -0.000006 electrons x Angstroem
 Tr[quadrupol]     -5963.452449

 energy correction for charged system         0.000000 eV
 dipol+quadrupol energy correction           -0.000000 eV
 added-field ion interaction          0.000003 eV  (added to PSCEN)


 Free energy of the ion-electron system (eV)
  ---------------------------------------------------
  alpha Z        PSCENC =       875.25928826
  Ewald energy   TEWEN  =    140467.92172078
  -Hartree energ DENC   =   -175972.37177747
  -exchange      EXHF   =         0.00000000
  -V(xc)+E(xc)   XCENC  =      1727.22110813
  PAW double counting   =     31885.32831381   -35670.53061943
  entropy T*S    EENTRO =        -0.00000000
  eigenvalues    EBANDS =    -11345.43129797
  atomic energy  EATOM  =     47617.44106709
  ---------------------------------------------------
  free energy    TOTEN  =      -415.16219681 eV

  energy without entropy =     -415.16219681  energy(sigma->0) =     -415.16219681


--------------------------------------------------------------------------------------------------------




--------------------------------------- Iteration      1(   4)  ---------------------------------------


    TRIAL :  cpu time      2.2944: real time      2.3043
    CORREC:  cpu time      0.0001: real time      0.0001
    --------------------------------------------
      LOOP:  cpu time      2.2947: real time      2.3046

 eigenvalue-minimisations  :  1824
 total energy-change (2. order) :-0.1625930E+01  (-0.1625850E+01)
 number of electron     448.0000000 magnetization 
 augmentation part      448.0000000 magnetization 

 DIPCOR: dipole corrections for dipol
 direction  3 min pos     1,
 dipolmoment           0.000000      0.000000     -0.000006 electrons x Angstroem
 Tr[quadrupol]     -5963.452449

 energy correction for charged system         0.000000 eV
 dipol+quadrupol energy correction           -0.000000 eV
 added-field ion interaction          0.000003 eV  (added to PSCEN)


 Free energy of the ion-electron system (eV)
  ---------------------------------------------------
  alpha Z        PSCENC =       875.25928826
  Ewald energy   TEWEN  =    140467.92172078
  -Hartree energ DENC   =   -175972.37177747
  -exchange      EXHF   =         0.00000000
  -V(xc)+E(xc)   XCENC  =      1727.22110813
  PAW double counting   =     31885.32831381   -35670.53061943
  entropy T*S    EENTRO =        -0.00000000
  eigenvalues    EBANDS =    -11347.05722821
  atomic energy  EATOM  =     47617.44106709
  ---------------------------------------------------
  free energy    TOTEN  =      -416.78812705 eV

  energy without entropy =     -416.78812705  energy(sigma->0) =     -416.78812705


--------------------------------------------------------------------------------------------------------




--------------------------------------- Iteration      1(   5)  ---------------------------------------


    TRIAL :  cpu time      4.2475: real time      4.2643
    CORREC:  cpu time      0.0001: real time      0.0001
    CHARGE:  cpu time      0.1407: real time      0.1412
    --------------------------------------------
      LOOP:  cpu time      4.3885: real time      4.4058

 eigenvalue-minimisations  :  2736
 total energy-change (2. order) :-0.2333448E-01  (-0.2333408E-01)
 number of electron     447.9999544 magnetization 
 augmentation part      158.9808001 magnetization 

 DIPCOR: dipole corrections for dipol
 direction  3 min pos     1,
 dipolmoment           0.000000      0.000000     -0.000006 electrons x Angstroem
 Tr[quadrupol]     -5963.452449

 energy correction for charged system         0.000000 eV
 dipol+quadrupol energy correction           -0.000000 eV
 added-field ion interaction          0.000003 eV  (added to PSCEN)


 Free energy of the ion-electron system (eV)
  ---------------------------------------------------
  alpha Z        PSCENC =       875.25928826
  Ewald energy   TEWEN  =    140467.92172078
  -Hartree energ DENC   =   -175972.37177747
  -exchange      EXHF   =         0.00000000
  -V(xc)+E(xc)   XCENC  =      1727.22110813
  PAW double counting   =     31885.32831381   -35670.53061943
  entropy T*S    EENTRO =        -0.00000000
  eigenvalues    EBANDS =    -11347.08056269
  atomic energy  EATOM  =     47617.44106709
  ---------------------------------------------------
  free energy    TOTEN  =      -416.81146153 eV

  energy without entropy =     -416.81146153  energy(sigma->0) =     -416.81146153


--------------------------------------------------------------------------------------------------------




--------------------------------------- Iteration      1(   6)  ---------------------------------------


    POTLOK:  cpu time      0.0614: real time      0.0616
    SETDIJ:  cpu time      0.0808: real time      0.0809
    TRIAL :  cpu time      0.9174: real time      0.9214
    CORREC:  cpu time      0.5743: real time      0.5762
    CHARGE:  cpu time      0.1361: real time      0.1366
    --------------------------------------------
      LOOP:  cpu time      1.7708: real time      1.7777

 eigenvalue-minimisations  :     0
 total energy-change (2. order) : 0.1710042E+03  (-0.9504095E+02)
 number of electron     447.9999550 magnetization 
 augmentation part      156.0869757 magnetization 

 DIPCOR: dipole corrections for dipol
 direction  3 min pos     1,
 dipolmoment           0.000000      0.000000      0.289449 electrons x Angstroem
 Tr[quadrupol]     -5998.000244

 energy correction for charged system         0.000000 eV
 dipol+quadrupol energy correction           -0.004988 eV
 added-field ion interaction         -0.158114 eV  (added to PSCEN)


 Free energy of the ion-electron system (eV)
  ---------------------------------------------------
  alpha Z        PSCENC =       874.95891285
  Ewald energy   TEWEN  =    140467.92172078
  -Hartree energ DENC   =   -179829.32808805
  -exchange      EXHF   =         0.00000000
  -V(xc)+E(xc)   XCENC  =      1848.99331411
  PAW double counting   =     36279.62758644   -40023.47108533
  entropy T*S    EENTRO =        -0.00000000
  eigenvalues    EBANDS =     -7481.95068632
  atomic energy  EATOM  =     47617.44106709
  ---------------------------------------------------
  free energy    TOTEN  =      -245.80725843 eV

  energy without entropy =     -245.80725843  energy(sigma->0) =     -245.80725843


--------------------------------------------------------------------------------------------------------




--------------------------------------- Iteration      1(   7)  ---------------------------------------


    POTLOK:  cpu time      0.0613: real time      0.0615
    SETDIJ:  cpu time      0.0808: real time      0.0810
    TRIAL :  cpu time      0.9068: real time      0.9109
    CORREC:  cpu time      0.5645: real time      0.5663
    CHARGE:  cpu time      0.1325: real time      0.1329
    --------------------------------------------
      LOOP:  cpu time      1.7473: real time      1.7540

 eigenvalue-minimisations  :     0
 total energy-change (2. order) :-0.9552967E+02  (-0.6471404E+01)
 number of electron     447.9999555 magnetization 
 augmentation part      154.2904186 magnetization 

 DIPCOR: dipole corrections for dipol
 direction  3 min pos     1,
 dipolmoment           0.000000      0.000000      0.224916 electrons x Angstroem
 Tr[quadrupol]     -6004.380566

 energy correction for charged system         0.000000 eV
 dipol+quadrupol energy correction           -0.003012 eV
 added-field ion interaction         -0.122862 eV  (added to PSCEN)


 Free energy of the ion-electron system (eV)
  ---------------------------------------------------
  alpha Z        PSCENC =       875.07669590
  Ewald energy   TEWEN  =    140467.92172078
  -Hartree energ DENC   =   -177972.76444094
  -exchange      EXHF   =         0.00000000
  -V(xc)+E(xc)   XCENC  =      1783.04561703
  PAW double counting   =     35153.79968879   -38968.31159035
  entropy T*S    EENTRO =        -0.00000000
  eigenvalues    EBANDS =     -9297.54569069
  atomic energy  EATOM  =     47617.44106709
  ---------------------------------------------------
  free energy    TOTEN  =      -341.33693241 eV

  energy without entropy =     -341.33693241  energy(sigma->0) =     -341.33693241


--------------------------------------------------------------------------------------------------------




--------------------------------------- Iteration      1(   8)  ---------------------------------------


    POTLOK:  cpu time      0.0578: real time      0.0580
    SETDIJ:  cpu time      0.0806: real time      0.0807
    TRIAL :  cpu time      0.8950: real time      0.8990
    CORREC:  cpu time      0.5525: real time      0.5544
    CHARGE:  cpu time      0.1364: real time      0.1369
    --------------------------------------------
      LOOP:  cpu time      1.7238: real time      1.7306

 eigenvalue-minimisations  :     0
 total energy-change (2. order) :-0.6486993E+01  (-0.3855686E+01)
 number of electron     447.9999554 magnetization 
 augmentation part      154.4199810 magnetization 

 DIPCOR: dipole corrections for dipol
 direction  3 min pos     1,
 dipolmoment           0.000000      0.000000      0.155439 electrons x Angstroem
 Tr[quadrupol]     -6003.081215

 energy correction for charged system         0.000000 eV
 dipol+quadrupol energy correction           -0.001438 eV
 added-field ion interaction         -0.084910 eV  (added to PSCEN)


 Free energy of the ion-electron system (eV)
  ---------------------------------------------------
  alpha Z        PSCENC =       875.14897553
  Ewald energy   TEWEN  =    140467.92172078
  -Hartree energ DENC   =   -177876.87839100
  -exchange      EXHF   =         0.00000000
  -V(xc)+E(xc)   XCENC  =      1773.61065443
  PAW double counting   =     35058.60160110   -38804.67079260
  entropy T*S    EENTRO =        -0.00000000
  eigenvalues    EBANDS =     -9458.99876096
  atomic energy  EATOM  =     47617.44106709
  ---------------------------------------------------
  free energy    TOTEN  =      -347.82392562 eV

  energy without entropy =     -347.82392562  energy(sigma->0) =     -347.82392562


--------------------------------------------------------------------------------------------------------




--------------------------------------- Iteration      1(   9)  ---------------------------------------


    POTLOK:  cpu time      0.0581: real time      0.0583
    SETDIJ:  cpu time      0.0814: real time      0.0816
    TRIAL :  cpu time      0.8931: real time      0.8971
    CORREC:  cpu time      0.5520: real time      0.5538
    CHARGE:  cpu time      0.1331: real time      0.1337
    --------------------------------------------
      LOOP:  cpu time      1.7187: real time      1.7254

 eigenvalue-minimisations  :     0
 total energy-change (2. order) :-0.3789088E+01  (-0.1726792E+01)
 number of electron     447.9999554 magnetization 
 augmentation part      154.4300094 magnetization 

 DIPCOR: dipole corrections for dipol
 direction  3 min pos     1,
 dipolmoment           0.000000      0.000000      0.123348 electrons x Angstroem
 Tr[quadrupol]     -5997.490886

 energy correction for charged system         0.000000 eV
 dipol+quadrupol energy correction           -0.000906 eV
 added-field ion interaction         -0.067380 eV  (added to PSCEN)


 Free energy of the ion-electron system (eV)
  ---------------------------------------------------
  alpha Z        PSCENC =       875.18635697
  Ewald energy   TEWEN  =    140467.92172078
  -Hartree energ DENC   =   -177772.34563416
  -exchange      EXHF   =         0.00000000
  -V(xc)+E(xc)   XCENC  =      1773.40749114
  PAW double counting   =     34990.29095359   -38770.46364250
  entropy T*S    EENTRO =        -0.00000000
  eigenvalues    EBANDS =     -9533.05132678
  atomic energy  EATOM  =     47617.44106709
  ---------------------------------------------------
  free energy    TOTEN  =      -351.61301388 eV

  energy without entropy =     -351.61301388  energy(sigma->0) =     -351.61301388


--------------------------------------------------------------------------------------------------------




--------------------------------------- Iteration      1(  10)  ---------------------------------------


    POTLOK:  cpu time      0.0580: real time      0.0582
    SETDIJ:  cpu time      0.0812: real time      0.0814
    TRIAL :  cpu time      0.8886: real time      0.8925
    CORREC:  cpu time      0.5411: real time      0.5428
    CHARGE:  cpu time      0.1353: real time      0.1358
    --------------------------------------------
      LOOP:  cpu time      1.7052: real time      1.7118

 eigenvalue-minimisations  :     0
 total energy-change (2. order) :-0.1734930E+01  (-0.6165610E+00)
 number of electron     447.9999554 magnetization 
 augmentation part      154.3579563 magnetization 

 DIPCOR: dipole corrections for dipol
 direction  3 min pos     1,
 dipolmoment           0.000000      0.000000      0.132935 electrons x Angstroem
 Tr[quadrupol]     -5996.063553

 energy correction for charged system         0.000000 eV
 dipol+quadrupol energy correction           -0.001052 eV
 added-field ion interaction         -0.072617 eV  (added to PSCEN)


 Free energy of the ion-electron system (eV)
  ---------------------------------------------------
  alpha Z        PSCENC =       875.19024112
  Ewald energy   TEWEN  =    140467.92172078
  -Hartree energ DENC   =   -177615.03721305
  -exchange      EXHF   =         0.00000000
  -V(xc)+E(xc)   XCENC  =      1771.76653455
  PAW double counting   =     34870.56734217   -38659.29074178
  entropy T*S    EENTRO =        -0.00000000
  eigenvalues    EBANDS =     -9681.90689495
  atomic energy  EATOM  =     47617.44106709
  ---------------------------------------------------
  free energy    TOTEN  =      -353.34794407 eV

  energy without entropy =     -353.34794407  energy(sigma->0) =     -353.34794407


--------------------------------------------------------------------------------------------------------




--------------------------------------- Iteration      1(  11)  ---------------------------------------


    POTLOK:  cpu time      0.0587: real time      0.0589
    SETDIJ:  cpu time      0.0808: real time      0.0810
    TRIAL :  cpu time      0.8966: real time      0.9006
    CORREC:  cpu time      0.5514: real time      0.5532
    CHARGE:  cpu time      0.1338: real time      0.1343
    --------------------------------------------
      LOOP:  cpu time      1.7221: real time      1.7288

 eigenvalue-minimisations  :     0
 total energy-change (2. order) :-0.6181994E+00  (-0.2134634E+00)
 number of electron     447.9999554 magnetization 
 augmentation part      154.4342775 magnetization 

 DIPCOR: dipole corrections for dipol
 direction  3 min pos     1,
 dipolmoment           0.000000      0.000000      0.141644 electrons x Angstroem
 Tr[quadrupol]     -5996.579322

 energy correction for charged system         0.000000 eV
 dipol+quadrupol energy correction           -0.001194 eV
 added-field ion interaction         -0.077374 eV  (added to PSCEN)


 Free energy of the ion-electron system (eV)
  ---------------------------------------------------
  alpha Z        PSCENC =       875.18605191
  Ewald energy   TEWEN  =    140467.92172078
  -Hartree energ DENC   =   -177546.25594317
  -exchange      EXHF   =         0.00000000
  -V(xc)+E(xc)   XCENC  =      1770.53734791
  PAW double counting   =     34797.60105363   -38577.71051611
  entropy T*S    EENTRO =        -0.00000000
  eigenvalues    EBANDS =     -9758.68692554
  atomic energy  EATOM  =     47617.44106709
  ---------------------------------------------------
  free energy    TOTEN  =      -353.96614351 eV

  energy without entropy =     -353.96614351  energy(sigma->0) =     -353.96614351


--------------------------------------------------------------------------------------------------------




--------------------------------------- Iteration      1(  12)  ---------------------------------------


    POTLOK:  cpu time      0.0585: real time      0.0587
    SETDIJ:  cpu time      0.0812: real time      0.0814
    TRIAL :  cpu time      0.8871: real time      0.8911
    CORREC:  cpu time      0.5460: real time      0.5478
    CHARGE:  cpu time      0.1349: real time      0.1354
    --------------------------------------------
      LOOP:  cpu time      1.7087: real time      1.7154

 eigenvalue-minimisations  :     0
 total energy-change (2. order) :-0.2134572E+00  (-0.7105623E-01)
 number of electron     447.9999554 magnetization 
 augmentation part      154.5408419 magnetization 

 DIPCOR: dipole corrections for dipol
 direction  3 min pos     1,
 dipolmoment           0.000000      0.000000      0.147650 electrons x Angstroem
 Tr[quadrupol]     -5997.080989

 energy correction for charged system         0.000000 eV
 dipol+quadrupol energy correction           -0.001298 eV
 added-field ion interaction         -0.080655 eV  (added to PSCEN)


 Free energy of the ion-electron system (eV)
  ---------------------------------------------------
  alpha Z        PSCENC =       875.18080845
  Ewald energy   TEWEN  =    140467.92172078
  -Hartree energ DENC   =   -177558.23041008
  -exchange      EXHF   =         0.00000000
  -V(xc)+E(xc)   XCENC  =      1770.66351063
  PAW double counting   =     34779.93789939   -38557.79061776
  entropy T*S    EENTRO =        -0.00000000
  eigenvalues    EBANDS =     -9749.30357917
  atomic energy  EATOM  =     47617.44106709
  ---------------------------------------------------
  free energy    TOTEN  =      -354.17960068 eV

  energy without entropy =     -354.17960068  energy(sigma->0) =     -354.17960068


--------------------------------------------------------------------------------------------------------




--------------------------------------- Iteration      1(  13)  ---------------------------------------


    POTLOK:  cpu time      0.0590: real time      0.0591
    SETDIJ:  cpu time      0.0801: real time      0.0803
    TRIAL :  cpu time      0.8898: real time      0.8940
    CORREC:  cpu time      0.5457: real time      0.5474
    CHARGE:  cpu time      0.1336: real time      0.1342
    --------------------------------------------
      LOOP:  cpu time      1.7094: real time      1.7162

 eigenvalue-minimisations  :     0
 total energy-change (2. order) :-0.7106536E-01  (-0.3072785E-01)
 number of electron     447.9999554 magnetization 
 augmentation part      154.5858340 magnetization 

 DIPCOR: dipole corrections for dipol
 direction  3 min pos     1,
 dipolmoment           0.000000      0.000000      0.151223 electrons x Angstroem
 Tr[quadrupol]     -5997.391162

 energy correction for charged system         0.000000 eV
 dipol+quadrupol energy correction           -0.001361 eV
 added-field ion interaction         -0.082607 eV  (added to PSCEN)


 Free energy of the ion-electron system (eV)
  ---------------------------------------------------
  alpha Z        PSCENC =       875.17723381
  Ewald energy   TEWEN  =    140467.92172078
  -Hartree energ DENC   =   -177581.27969790
  -exchange      EXHF   =         0.00000000
  -V(xc)+E(xc)   XCENC  =      1770.98580576
  PAW double counting   =     34781.25774094   -38562.08432112
  entropy T*S    EENTRO =        -0.00000000
  eigenvalues    EBANDS =     -9723.67021539
  atomic energy  EATOM  =     47617.44106709
  ---------------------------------------------------
  free energy    TOTEN  =      -354.25066604 eV

  energy without entropy =     -354.25066604  energy(sigma->0) =     -354.25066604


--------------------------------------------------------------------------------------------------------




--------------------------------------- Iteration      1(  14)  ---------------------------------------


    POTLOK:  cpu time      0.0574: real time      0.0575
    SETDIJ:  cpu time      0.0803: real time      0.0805
    TRIAL :  cpu time      0.8860: real time      0.8899
    CORREC:  cpu time      0.5361: real time      0.5379
    CHARGE:  cpu time      0.1355: real time      0.1360
    --------------------------------------------
      LOOP:  cpu time      1.6964: real time      1.7030

 eigenvalue-minimisations  :     0
 total energy-change (2. order) :-0.3075735E-01  (-0.1432666E-01)
 number of electron     447.9999554 magnetization 
 augmentation part      154.5737627 magnetization 

 DIPCOR: dipole corrections for dipol
 direction  3 min pos     1,
 dipolmoment           0.000000      0.000000      0.154735 electrons x Angstroem
 Tr[quadrupol]     -5997.659067

 energy correction for charged system         0.000000 eV
 dipol+quadrupol energy correction           -0.001425 eV
 added-field ion interaction         -0.084525 eV  (added to PSCEN)


 Free energy of the ion-electron system (eV)
  ---------------------------------------------------
  alpha Z        PSCENC =       875.17494138
  Ewald energy   TEWEN  =    140467.92172078
  -Hartree energ DENC   =   -177593.72374258
  -exchange      EXHF   =         0.00000000
  -V(xc)+E(xc)   XCENC  =      1771.05273258
  PAW double counting   =     34784.81649084   -38567.41670498
  entropy T*S    EENTRO =        -0.00000000
  eigenvalues    EBANDS =     -9709.54792850
  atomic energy  EATOM  =     47617.44106709
  ---------------------------------------------------
  free energy    TOTEN  =      -354.28142339 eV

  energy without entropy =     -354.28142339  energy(sigma->0) =     -354.28142339


--------------------------------------------------------------------------------------------------------




--------------------------------------- Iteration      1(  15)  ---------------------------------------


    POTLOK:  cpu time      0.0563: real time      0.0564
    SETDIJ:  cpu time      0.0802: real time      0.0804
    TRIAL :  cpu time      0.8843: real time      0.8883
    CORREC:  cpu time      0.5494: real time      0.5512
    CHARGE:  cpu time      0.1330: real time      0.1335
    --------------------------------------------
      LOOP:  cpu time      1.7041: real time      1.7107

 eigenvalue-minimisations  :     0
 total energy-change (2. order) :-0.1434351E-01  (-0.6687608E-02)
 number of electron     447.9999554 magnetization 
 augmentation part      154.5581954 magnetization 

 DIPCOR: dipole corrections for dipol
 direction  3 min pos     1,
 dipolmoment           0.000000      0.000000      0.158016 electrons x Angstroem
 Tr[quadrupol]     -5997.895997

 energy correction for charged system         0.000000 eV
 dipol+quadrupol energy correction           -0.001486 eV
 added-field ion interaction         -0.086318 eV  (added to PSCEN)


 Free energy of the ion-electron system (eV)
  ---------------------------------------------------
  alpha Z        PSCENC =       875.17292263
  Ewald energy   TEWEN  =    140467.92172078
  -Hartree energ DENC   =   -177601.87702539
  -exchange      EXHF   =         0.00000000
  -V(xc)+E(xc)   XCENC  =      1771.06566600
  PAW double counting   =     34790.18491957   -38572.03538898
  entropy T*S    EENTRO =        -0.00000000
  eigenvalues    EBANDS =     -9702.16964860
  atomic energy  EATOM  =     47617.44106709
  ---------------------------------------------------
  free energy    TOTEN  =      -354.29576690 eV

  energy without entropy =     -354.29576690  energy(sigma->0) =     -354.29576690


--------------------------------------------------------------------------------------------------------




--------------------------------------- Iteration      1(  16)  ---------------------------------------


    POTLOK:  cpu time      0.0574: real time      0.0576
    SETDIJ:  cpu time      0.0805: real time      0.0806
    TRIAL :  cpu time      0.8849: real time      0.8888
    CORREC:  cpu time      0.5400: real time      0.5419
    CHARGE:  cpu time      0.1356: real time      0.1361
    --------------------------------------------
      LOOP:  cpu time      1.6994: real time      1.7061

 eigenvalue-minimisations  :     0
 total energy-change (2. order) :-0.6691821E-02  (-0.2547249E-02)
 number of electron     447.9999554 magnetization 
 augmentation part      154.5556331 magnetization 

 DIPCOR: dipole corrections for dipol
 direction  3 min pos     1,
 dipolmoment           0.000000      0.000000      0.159793 electrons x Angstroem
 Tr[quadrupol]     -5998.037837

 energy correction for charged system         0.000000 eV
 dipol+quadrupol energy correction           -0.001520 eV
 added-field ion interaction         -0.087288 eV  (added to PSCEN)


 Free energy of the ion-electron system (eV)
  ---------------------------------------------------
  alpha Z        PSCENC =       875.17108308
  Ewald energy   TEWEN  =    140467.92172078
  -Hartree energ DENC   =   -177610.68896983
  -exchange      EXHF   =         0.00000000
  -V(xc)+E(xc)   XCENC  =      1771.16756175
  PAW double counting   =     34796.55349497   -38577.62895990
  entropy T*S    EENTRO =        -0.00000000
  eigenvalues    EBANDS =     -9694.23945666
  atomic energy  EATOM  =     47617.44106709
  ---------------------------------------------------
  free energy    TOTEN  =      -354.30245872 eV

  energy without entropy =     -354.30245872  energy(sigma->0) =     -354.30245872


--------------------------------------------------------------------------------------------------------




--------------------------------------- Iteration      1(  17)  ---------------------------------------


    POTLOK:  cpu time      0.0585: real time      0.0587
    SETDIJ:  cpu time      0.0798: real time      0.0800
    TRIAL :  cpu time      0.8932: real time      0.8971
    CORREC:  cpu time      0.5429: real time      0.5447
    CHARGE:  cpu time      0.1331: real time      0.1336
    --------------------------------------------
      LOOP:  cpu time      1.7081: real time      1.7147

 eigenvalue-minimisations  :     0
 total energy-change (2. order) :-0.2544619E-02  (-0.9377102E-03)
 number of electron     447.9999554 magnetization 
 augmentation part      154.5563390 magnetization 

 DIPCOR: dipole corrections for dipol
 direction  3 min pos     1,
 dipolmoment           0.000000      0.000000      0.159728 electrons x Angstroem
 Tr[quadrupol]     -5998.069182

 energy correction for charged system         0.000000 eV
 dipol+quadrupol energy correction           -0.001519 eV
 added-field ion interaction         -0.087253 eV  (added to PSCEN)


 Free energy of the ion-electron system (eV)
  ---------------------------------------------------
  alpha Z        PSCENC =       875.17033244
  Ewald energy   TEWEN  =    140467.92172078
  -Hartree energ DENC   =   -177615.37971813
  -exchange      EXHF   =         0.00000000
  -V(xc)+E(xc)   XCENC  =      1771.23345485
  PAW double counting   =     34800.39914158   -38581.61320429
  entropy T*S    EENTRO =        -0.00000000
  eigenvalues    EBANDS =     -9689.47779765
  atomic energy  EATOM  =     47617.44106709
  ---------------------------------------------------
  free energy    TOTEN  =      -354.30500334 eV

  energy without entropy =     -354.30500334  energy(sigma->0) =     -354.30500334


--------------------------------------------------------------------------------------------------------




--------------------------------------- Iteration      1(  18)  ---------------------------------------


    POTLOK:  cpu time      0.0585: real time      0.0587
    SETDIJ:  cpu time      0.0804: real time      0.0806
    TRIAL :  cpu time      0.8884: real time      0.8924
    CORREC:  cpu time      0.5386: real time      0.5403
    CHARGE:  cpu time      0.1342: real time      0.1348
    --------------------------------------------
      LOOP:  cpu time      1.7010: real time      1.7077

 eigenvalue-minimisations  :     0
 total energy-change (2. order) :-0.9357697E-03  (-0.3607216E-03)
 number of electron     447.9999554 magnetization 
 augmentation part      154.5565247 magnetization 

 DIPCOR: dipole corrections for dipol
 direction  3 min pos     1,
 dipolmoment           0.000000      0.000000      0.158829 electrons x Angstroem
 Tr[quadrupol]     -5998.051799

 energy correction for charged system         0.000000 eV
 dipol+quadrupol energy correction           -0.001502 eV
 added-field ion interaction         -0.086762 eV  (added to PSCEN)


 Free energy of the ion-electron system (eV)
  ---------------------------------------------------
  alpha Z        PSCENC =       875.17056377
  Ewald energy   TEWEN  =    140467.92172078
  -Hartree energ DENC   =   -177616.00165436
  -exchange      EXHF   =         0.00000000
  -V(xc)+E(xc)   XCENC  =      1771.24660584
  PAW double counting   =     34802.50688923   -38583.90588197
  entropy T*S    EENTRO =        -0.00000000
  eigenvalues    EBANDS =     -9688.68524949
  atomic energy  EATOM  =     47617.44106709
  ---------------------------------------------------
  free energy    TOTEN  =      -354.30593911 eV

  energy without entropy =     -354.30593911  energy(sigma->0) =     -354.30593911


--------------------------------------------------------------------------------------------------------




--------------------------------------- Iteration      1(  19)  ---------------------------------------


    POTLOK:  cpu time      0.0589: real time      0.0590
    SETDIJ:  cpu time      0.0804: real time      0.0806
    TRIAL :  cpu time      0.8874: real time      0.8914
    CORREC:  cpu time      0.5466: real time      0.5484
    CHARGE:  cpu time      0.1330: real time      0.1334
    --------------------------------------------
      LOOP:  cpu time      1.7077: real time      1.7143

 eigenvalue-minimisations  :     0
 total energy-change (2. order) :-0.3602886E-03  (-0.1456267E-03)
 number of electron     447.9999554 magnetization 
 augmentation part      154.5560099 magnetization 

 DIPCOR: dipole corrections for dipol
 direction  3 min pos     1,
 dipolmoment           0.000000      0.000000      0.157996 electrons x Angstroem
 Tr[quadrupol]     -5998.022180

 energy correction for charged system         0.000000 eV
 dipol+quadrupol energy correction           -0.001486 eV
 added-field ion interaction         -0.086307 eV  (added to PSCEN)


[...]
    280       8.2291      0.00000
    281       8.6233      0.00000
    282       8.6402      0.00000
    283       8.6406      0.00000
    284       8.6435      0.00000
    285       8.6731      0.00000
    286       8.6766      0.00000
    287       8.6806      0.00000
    288       8.6941      0.00000
    289       8.8993      0.00000
    290       8.9408      0.00000
    291       8.9651      0.00000
    292       8.9973      0.00000
    293       9.4371      0.00000
    294       9.4544      0.00000
    295       9.4562      0.00000
    296       9.4690      0.00000
    297       9.5560      0.00000
    298       9.5808      0.00000
    299       9.5985      0.00000
    300       9.6130      0.00000
    301      10.0140      0.00000
    302      10.1533      0.00000
    303      10.1891      0.00000
    304      10.2716      0.00000


--------------------------------------------------------------------------------------------------------


 soft charge-density along one line, spin component           1
         0         1         2         3         4         5         6         7         8         9
 total charge-density along one line
 
 pseudopotential strength for first ion, spin component:           1
-51.673  -0.000  -0.000   7.194   0.000   0.000  -0.000   0.000
 -0.000 -51.729  -0.000   0.000   7.224   0.000  -0.034   0.084
 -0.000  -0.000 -51.673   0.000   0.000   7.194   0.000  -0.000
  7.194   0.000   0.000   4.272   0.000  -0.000  -0.000   0.000
  0.000   7.224   0.000   0.000   4.287  -0.000  -0.007   0.014
  0.000   0.000   7.194  -0.000  -0.000   4.272   0.000  -0.000
 -0.000  -0.034   0.000  -0.000  -0.007   0.000   2.997 -11.088
  0.000   0.084  -0.000   0.000   0.014  -0.000 -11.088  46.323
 -0.000  -0.000   0.000   0.000   0.000  -0.000   0.000  -0.000
  0.009   0.000  -0.000  -0.011  -0.000   0.000   0.000  -0.000
 -0.000   0.008   0.000   0.000  -0.025  -0.000   0.012  -0.025
 -0.000   0.000   0.009   0.000   0.000  -0.011   0.000  -0.000
 -0.000  -0.000  -0.000   0.000   0.000   0.000   0.000  -0.000
 total augmentation occupancy for first ion, spin component:           1
  2.001  -0.000   0.000  -0.008  -0.000   0.000   0.000   0.000  -0.000  -0.008   0.000  -0.000   0.000
 -0.000   2.002   0.000  -0.000  -0.002   0.000   0.001   0.005   0.000  -0.000  -0.014   0.000   0.000
  0.000   0.000   2.001   0.000   0.000  -0.008  -0.000  -0.000  -0.000  -0.000   0.000  -0.008  -0.000
 -0.008  -0.000   0.000   0.076  -0.000  -0.000   0.000  -0.000  -0.000   0.001  -0.000   0.000  -0.000
 -0.000  -0.002   0.000  -0.000   0.047  -0.000   0.040   0.001   0.000   0.000   0.026   0.000   0.000
  0.000   0.000  -0.008  -0.000  -0.000   0.076  -0.000   0.000  -0.000  -0.000   0.000   0.001   0.000
  0.000   0.001  -0.000   0.000   0.040  -0.000   0.816   0.014  -0.000  -0.000  -0.040   0.000  -0.000
  0.000   0.005  -0.000  -0.000   0.001   0.000   0.014   0.000   0.000  -0.000  -0.001  -0.000   0.000
 -0.000   0.000  -0.000  -0.000   0.000  -0.000  -0.000   0.000   0.013  -0.000   0.000  -0.000  -0.000
 -0.008  -0.000  -0.000   0.001   0.000  -0.000  -0.000  -0.000  -0.000   0.011   0.000   0.000   0.000
  0.000  -0.014   0.000  -0.000   0.026   0.000  -0.040  -0.001   0.000   0.000   0.031   0.000   0.000
 -0.000   0.000  -0.008   0.000   0.000   0.001   0.000  -0.000  -0.000   0.000   0.000   0.011  -0.000
  0.000   0.000  -0.000  -0.000   0.000   0.000  -0.000   0.000  -0.000   0.000   0.000  -0.000   0.052


------------------------ aborting loop because EDIFF is reached ----------------------------------------


    FORLOC:  cpu time      0.0029: real time      0.0029
    FORNL :  cpu time      0.2966: real time      0.2980
    STRESS:  cpu time      2.0660: real time      2.0739
    FORCOR:  cpu time      0.0500: real time      0.0501
    OFIELD:  cpu time      0.0001: real time      0.0001
    FORVDW:  cpu time      1.5392: real time      1.5419

  FORCE on cell =-STRESS in cart. coord.  units (eV):
  Direction    XX          YY          ZZ          XY          YZ          ZX
  --------------------------------------------------------------------------------------
  Alpha Z   875.25928   875.25928   875.25928
  Ewald  161112.87060161112.87060************     0.00000     0.00000    -0.00000
  Hartree171189.06310171189.06310************    -0.00000    -0.00000    -0.00000
  E(xc)   -2465.28641 -2465.28641 -2473.61425    -0.00000     0.00000     0.00000
  Local  ************************342565.84869    -0.00000     0.00000     0.00000
  n-local -2794.70650 -2795.52294 -2816.20424    -0.00000     0.00000     0.00000
  augment  1046.64068  1046.64068  1037.03612     0.00000     0.00000    -0.00000
  Kinetic  7308.02702  7310.63376  7349.49148    -0.00001     0.00000    -0.00000
  Fock        0.00000     0.00000     0.00000     0.00000     0.00000     0.00000
  vdW       -21.48523   -21.48525   -16.14747    -0.00000    -0.00000     0.00000
  -------------------------------------------------------------------------------------
  Total     -26.36744   -26.36744    -1.64379     0.00000     0.00000     0.00000
  in kB     -27.79626   -27.79626    -1.73286     0.00000     0.00000     0.00000
  external pressure =      -19.11 kB  Pullay stress =        0.00 kB


 VOLUME and BASIS-vectors are now :
 -----------------------------------------------------------------------------
  energy-cutoff  :      600.00
  volume of cell :     1519.82
      direct lattice vectors                 reciprocal lattice vectors
     8.440984654  0.000000000  0.000000000     0.118469591  0.000000000  0.000000000
     0.000000000  8.440984654  0.000000000     0.000000000  0.118469591  0.000000000
     0.000000000  0.000000000 21.330738491     0.000000000  0.000000000  0.046880702

  length of vectors
     8.440984654  8.440984654 21.330738491     0.118469591  0.118469591  0.046880702


 FORCES acting on ions:
    Electron-Ion                     Ewald-Force                    Non-Local-Force
 -----------------------------------------------------------------------------------------------
   -.637E-13 0.761E-01 0.207E+04   -.132E-12 -.754E-01 -.206E+04   0.151E-23 -.555E-03 -.716E+01
   -.761E-01 0.384E-12 0.207E+04   0.754E-01 0.537E-13 -.206E+04   0.555E-03 0.378E-22 -.716E+01
   -.644E-13 -.158E-12 0.684E+03   -.151E-10 0.151E-10 -.684E+03   -.487E-22 0.549E-22 0.492E+00
   -.439E+00 0.439E+00 0.683E+03   0.441E+00 -.441E+00 -.684E+03   -.100E-02 0.100E-02 0.529E+00
   -.333E-13 0.276E+00 -.690E+03   0.162E-11 -.271E+00 0.690E+03   0.484E-22 0.126E-02 -.195E+00
   -.276E+00 0.657E-12 -.690E+03   0.271E+00 -.144E-11 0.690E+03   -.126E-02 0.800E-22 -.195E+00
   -.343E-13 0.849E-12 -.205E+04   0.419E-12 -.348E-12 0.204E+04   0.116E-22 -.188E-22 0.605E+01
   -.136E+01 0.136E+01 -.205E+04   0.121E+01 -.121E+01 0.204E+04   0.132E+00 -.132E+00 0.611E+01
   -.577E-13 -.761E-01 0.207E+04   -.356E-12 0.754E-01 -.206E+04   0.339E-22 0.555E-03 -.716E+01
   -.114E+00 0.983E-12 0.207E+04   0.116E+00 0.131E-10 -.206E+04   -.141E-02 -.170E-22 -.716E+01
   -.580E-13 0.660E-12 0.683E+03   -.166E-10 0.391E-13 -.684E+03   -.113E-22 0.437E-22 0.473E+00
   -.439E+00 -.439E+00 0.683E+03   0.441E+00 0.441E+00 -.684E+03   -.100E-02 -.100E-02 0.529E+00
   -.318E-13 -.276E+00 -.690E+03   0.298E-11 0.271E+00 0.690E+03   0.520E-22 -.126E-02 -.195E+00
   -.164E+01 0.586E-12 -.691E+03   0.172E+01 -.995E-13 0.692E+03   -.834E-01 0.233E-22 -.253E+00
   -.380E-13 -.283E-12 -.205E+04   0.142E-13 -.355E-14 0.204E+04   0.443E-23 -.484E-22 0.603E+01
   -.136E+01 -.136E+01 -.205E+04   0.121E+01 0.121E+01 0.204E+04   0.132E+00 0.132E+00 0.611E+01
   0.672E-12 0.114E+00 0.207E+04   -.128E-10 -.116E+00 -.206E+04   -.476E-23 0.141E-02 -.716E+01
   0.761E-01 0.357E-12 0.207E+04   -.754E-01 0.702E-13 -.206E+04   -.555E-03 -.619E-23 -.716E+01
   0.587E-12 0.673E-14 0.683E+03   0.154E-11 0.150E-10 -.684E+03   -.643E-22 -.133E-22 0.473E+00
   0.439E+00 0.439E+00 0.683E+03   -.441E+00 -.441E+00 -.684E+03   0.100E-02 0.100E-02 0.529E+00
   0.606E-12 0.164E+01 -.691E+03   -.153E-11 -.172E+01 0.692E+03   0.221E-22 0.834E-01 -.253E+00
   0.276E+00 0.606E-12 -.690E+03   -.271E+00 -.153E-11 0.690E+03   0.126E-02 -.449E-22 -.195E+00
   0.709E-12 -.545E-12 -.205E+04   0.853E-13 -.249E-13 0.204E+04   0.254E-22 -.297E-23 0.603E+01
   0.136E+01 0.136E+01 -.205E+04   -.121E+01 -.121E+01 0.204E+04   -.132E+00 -.132E+00 0.611E+01
   0.659E-12 -.114E+00 0.207E+04   -.132E-10 0.116E+00 -.206E+04   -.129E-21 -.141E-02 -.716E+01
   0.114E+00 -.110E-11 0.207E+04   -.116E+00 0.131E-10 -.206E+04   0.141E-02 0.376E-22 -.716E+01
   0.585E-12 0.832E-12 0.681E+03   -.249E-13 0.924E-13 -.682E+03   0.685E-22 0.636E-22 0.623E+00
   0.439E+00 -.439E+00 0.683E+03   -.441E+00 0.441E+00 -.684E+03   0.100E-02 -.100E-02 0.529E+00
   0.599E-12 -.164E+01 -.691E+03   0.000E+00 0.172E+01 0.692E+03   0.276E-22 -.834E-01 -.253E+00
   0.164E+01 -.126E-11 -.691E+03   -.172E+01 -.284E-13 0.692E+03   0.834E-01 0.483E-22 -.253E+00
   0.706E-12 0.145E-11 -.207E+04   0.675E-13 -.711E-14 0.206E+04   -.691E-23 0.219E-22 0.647E+01
   0.136E+01 -.136E+01 -.205E+04   -.121E+01 0.121E+01 0.204E+04   -.132E+00 0.132E+00 0.611E+01
   -.161E-13 0.176E+00 0.512E+03   0.950E-13 -.177E+00 -.512E+03   0.861E-23 0.132E-02 -.959E-01
   -.176E+00 0.163E-12 0.512E+03   0.177E+00 -.444E-14 -.512E+03   -.132E-02 -.354E-23 -.959E-01
   -.417E-13 -.808E-12 0.155E+04   0.854E-11 -.844E-11 -.156E+04   -.638E-23 -.223E-23 0.340E+01
   -.724E-01 0.724E-01 0.155E+04   0.725E-01 -.725E-01 -.156E+04   -.603E-04 0.603E-04 0.341E+01
   -.235E-13 0.423E+00 -.156E+04   -.799E-12 -.450E+00 0.156E+04   -.736E-22 0.127E-01 -.504E+01
   -.423E+00 0.539E-13 -.156E+04   0.450E+00 0.856E-12 0.156E+04   -.127E-01 0.727E-22 -.504E+01
   -.572E-13 0.611E-12 -.512E+03   -.711E-14 0.497E-13 0.511E+03   -.542E-22 -.702E-22 0.227E+00
   -.697E+00 0.697E+00 -.511E+03   0.687E+00 -.687E+00 0.511E+03   0.181E-01 -.181E-01 0.328E+00
   -.884E-14 -.176E+00 0.512E+03   0.924E-13 0.177E+00 -.512E+03   0.178E-22 -.132E-02 -.959E-01
   -.413E+00 0.512E-12 0.511E+03   0.385E+00 -.762E-11 -.511E+03   0.392E-01 0.803E-22 -.108E+00
   -.429E-13 -.350E-12 0.155E+04   0.846E-11 -.867E-12 -.156E+04   0.151E-22 -.224E-22 0.341E+01
   -.724E-01 -.724E-01 0.155E+04   0.725E-01 0.725E-01 -.156E+04   -.603E-04 -.603E-04 0.341E+01
   -.211E-13 -.423E+00 -.156E+04   -.782E-12 0.450E+00 0.156E+04   -.151E-23 -.127E-01 -.504E+01
   -.307E+01 0.242E-12 -.156E+04   0.301E+01 0.818E-11 0.156E+04   0.199E+00 -.732E-22 -.473E+01
   -.215E-13 0.640E-12 -.511E+03   -.742E-11 0.711E-14 0.510E+03   -.128E-22 0.644E-22 0.310E+00
   -.697E+00 -.697E+00 -.511E+03   0.687E+00 0.687E+00 0.511E+03   0.181E-01 0.181E-01 0.328E+00
   0.278E-12 0.413E+00 0.511E+03   0.763E-11 -.385E+00 -.511E+03   0.897E-22 -.392E-01 -.108E+00
   0.176E+00 0.135E-12 0.512E+03   -.177E+00 -.568E-13 -.512E+03   0.132E-02 0.218E-22 -.959E-01
   0.339E-12 0.128E-11 0.155E+04   0.918E-12 -.848E-11 -.156E+04   -.838E-23 -.565E-23 0.341E+01
   0.724E-01 0.724E-01 0.155E+04   -.725E-01 -.725E-01 -.156E+04   0.603E-04 0.603E-04 0.341E+01
   0.322E-12 0.307E+01 -.156E+04   -.815E-11 -.301E+01 0.156E+04   0.656E-22 -.199E+00 -.473E+01
   0.423E+00 0.135E-13 -.156E+04   -.450E+00 0.888E-12 0.156E+04   0.127E-01 -.696E-22 -.504E+01
   0.270E-12 0.343E-12 -.511E+03   -.355E-13 0.743E-11 0.510E+03   -.174E-22 0.504E-22 0.310E+00
   0.697E+00 0.697E+00 -.511E+03   -.687E+00 -.687E+00 0.511E+03   -.181E-01 -.181E-01 0.328E+00
   0.269E-12 -.413E+00 0.511E+03   0.769E-11 0.385E+00 -.511E+03   0.185E-21 0.392E-01 -.108E+00
   0.413E+00 -.162E-11 0.511E+03   -.385E+00 -.770E-11 -.511E+03   -.392E-01 0.146E-21 -.108E+00
   0.335E-12 0.163E-11 0.155E+04   0.876E-12 -.888E-12 -.156E+04   -.105E-21 0.432E-23 0.341E+01
   0.724E-01 -.724E-01 0.155E+04   -.725E-01 0.725E-01 -.156E+04   0.603E-04 -.603E-04 0.341E+01
   0.321E-12 -.307E+01 -.156E+04   -.818E-11 0.301E+01 0.156E+04   -.256E-22 0.199E+00 -.473E+01
   0.307E+01 0.166E-11 -.156E+04   -.301E+01 0.818E-11 0.156E+04   -.199E+00 0.197E-22 -.473E+01
   0.257E-12 0.524E-12 -.520E+03   -.782E-13 0.355E-13 0.520E+03   -.393E-22 -.806E-22 -.120E+00
   0.697E+00 -.697E+00 -.511E+03   -.687E+00 0.687E+00 0.511E+03   -.181E-01 0.181E-01 0.328E+00
 -----------------------------------------------------------------------------------------------
   0.206E-10 0.273E-10 0.165E+02   -.165E-12 0.179E-12 0.841E-11   0.208E-16 -.208E-16 -.165E+02
 
 
 POSITION                                       TOTAL-FORCE (eV/Angst)
 -----------------------------------------------------------------------------------
      0.00000      6.33074      7.50000         0.000000      0.000191      0.335852
      2.11025      0.00000      7.50000        -0.000191     -0.000000      0.335852
      0.00000      0.00000      9.61025         0.000000     -0.000000      0.075901
      2.11025      6.33074      9.61025         0.000687     -0.000687      0.075049
      0.00000      6.33023     11.73368         0.000000      0.005955      0.005041
      2.11076      0.00000     11.73368        -0.005955     -0.000000      0.005041
      0.00000      0.00000     13.83822         0.000000     -0.000000      0.014965
      2.10905      6.33193     13.83447        -0.023328      0.023328      0.027188
      0.00000      2.11025      7.50000         0.000000     -0.000191      0.335852
      2.11025      4.22049      7.50000         0.000298     -0.000000      0.335393
      0.00000      4.22049      9.61025         0.000000     -0.000000      0.080724
      2.11025      2.11025      9.61025         0.000687      0.000687      0.075049
      0.00000      2.11076     11.73368         0.000000     -0.005955      0.005041
      2.11344      4.22049     11.73659        -0.006891     -0.000000     -0.005416
      0.00000      4.22049     13.83544         0.000000     -0.000000      0.031532
      2.10905      2.10905     13.83447        -0.023328     -0.023328      0.027188
      4.22049      6.33074      7.50000         0.000000     -0.000298      0.335393
      6.33074      0.00000      7.50000         0.000191     -0.000000      0.335852
      4.22049      0.00000      9.61025         0.000000     -0.000000      0.080724
      6.33074      6.33074      9.61025        -0.000687     -0.000687      0.075049
      4.22049      6.32754     11.73659         0.000000      0.006891     -0.005416
      6.33023      0.00000     11.73368         0.005955     -0.000000      0.005041
      4.22049      0.00000     13.83544         0.000000     -0.000000      0.031532
      6.33193      6.33193     13.83447         0.023328      0.023328      0.027188
      4.22049      2.11025      7.50000         0.000000      0.000298      0.335393
      6.33074      4.22049      7.50000        -0.000298     -0.000000      0.335393
      4.22049      4.22049      9.61025         0.000000     -0.000000      0.083495
      6.33074      2.11025      9.61025        -0.000687      0.000687      0.075049
      4.22049      2.11344     11.73659         0.000000     -0.006891     -0.005416
      6.32754      4.22049     11.73659         0.006891     -0.000000     -0.005416
      4.22049      4.22049     13.87814         0.000000     -0.000000     -0.262255
      6.33193      2.10905     13.83447         0.023328     -0.023328      0.027188
      0.00000      6.33074      9.61025         0.000000      0.000638      0.074099
      2.11025      0.00000      9.61025        -0.000638     -0.000000      0.074099
      0.00000      0.00000      7.50000         0.000000     -0.000000     -0.501448
      2.11025      6.33074      7.50000        -0.000030      0.000030     -0.501003
      0.00000      6.33258     13.88587         0.000000     -0.013530     -0.024264
      2.10840      0.00000     13.88587         0.013530     -0.000000     -0.024264
      0.00000      0.00000     11.72785         0.000000     -0.000000     -0.002040
      2.10979      6.33120     11.72890         0.007942     -0.007942     -0.003369
      0.00000      2.11025      9.61025         0.000000     -0.000638      0.074099
      2.11025      4.22049      9.61025         0.010240     -0.000000      0.085244
      0.00000      4.22049      7.50000         0.000000     -0.000000     -0.500991
      2.11025      2.11025      7.50000        -0.000030     -0.000030     -0.501003
      0.00000      2.10840     13.88587         0.000000      0.013530     -0.024264
      2.10031      4.22049     13.88381         0.138485     -0.000000      0.054790
      0.00000      4.22049     11.72684         0.000000     -0.000000      0.012089
      2.10979      2.10979     11.72890         0.007942      0.007942     -0.003369
      4.22049      6.33074      9.61025         0.000000     -0.010240      0.085244
      6.33074      0.00000      9.61025         0.000638     -0.000000      0.074099
      4.22049      0.00000      7.50000         0.000000     -0.000000     -0.500991
      6.33074      6.33074      7.50000         0.000030      0.000030     -0.501003
      4.22049      6.34068     13.88381         0.000000     -0.138485      0.054790
      6.33258      0.00000     13.88587        -0.013530     -0.000000     -0.024264
      4.22049      0.00000     11.72684         0.000000     -0.000000      0.012089
      6.33120      6.33120     11.72890        -0.007942     -0.007942     -0.003369
      4.22049      2.11025      9.61025         0.000000      0.010240      0.085244
      6.33074      4.22049      9.61025        -0.010240     -0.000000      0.085244
      4.22049      4.22049      7.50000         0.000000     -0.000000     -0.501506
      6.33074      2.11025      7.50000         0.000030     -0.000030     -0.501003
      4.22049      2.10031     13.88381         0.000000      0.138485      0.054790
      6.34068      4.22049     13.88381        -0.138485     -0.000000      0.054790
      4.22049      4.22049     11.73684         0.000000     -0.000000      0.011755
      6.33120      2.10979     11.72890        -0.007942      0.007942     -0.003369
 -----------------------------------------------------------------------------------
    total drift:                                0.000000      0.000000      0.002557


--------------------------------------------------------------------------------------------------------



  FREE ENERGIE OF THE ION-ELECTRON SYSTEM (eV)
  ---------------------------------------------------
  free  energy   TOTEN  =      -371.28351891 eV

  energy  without entropy=     -371.28351891  energy(sigma->0) =     -371.28351891
 


--------------------------------------------------------------------------------------------------------


    POTLOK:  cpu time      0.1505: real time      0.1509


--------------------------------------------------------------------------------------------------------


     LOOP+:  cpu time     52.8424: real time     53.0564
    4ORBIT:  cpu time      0.0000: real time      0.0000

 total amount of memory used by VASP MPI-rank0   114954. kBytes
=======================================================================

   base      :      30000. kBytes
   nonl-proj :      42083. kBytes
   fftplans  :      14615. kBytes
   grid      :      20512. kBytes
   one-center:        259. kBytes
   wavefun   :       7485. kBytes
 
  
  
 General timing and accounting informations for this job:
 ========================================================
  
                  Total CPU time used (sec):       55.975
                            User time (sec):       55.469
                          System time (sec):        0.505
                         Elapsed time (sec):       56.837
  
                   Maximum memory used (kb):      387840.
                   Average memory used (kb):          N/A
  
                          Minor page faults:        52910
                          Major page faults:          122
                 Voluntary context switches:         1823
