 **********************************************************************
                          MRCC program system
 **********************************************************************

                              Written by
     Mihaly Kallay, Peter R. Nagy, David Mester, Laszlo Gyevi-Nagy,
        Jozsef Csoka, P. Bernat Szabo, Zoltan Rolik, Gyula Samu,
     Jozsef Csontos, Bence Hegely, Adam Ganyecz, Istvan Ladjanszki,
       Lorant Szegedy, Bence Ladoczki, Klara Petrov, Mate Farkas,
                    Pal D. Mezei, and Reka A. Horvath

        Department of Physical Chemistry and Materials Science
            Budapest University of Technology and Economics
                  Budapest P.O.Box 91, H-1521 Hungary

                              www.mrcc.hu

                     Release date: August 28, 2023

 ************************ 2024-11-25 16:08:47 *************************
 Executing minp...

 Reading input from MINP...

 Input file:

calc=LNO-CCSD(T)
scftype=rhf
verbosity=3
mem=200000MB
symm=off
unit=angs
scfiguess=small
scfmaxit=1000
scfalg=locfit1
bpedo=0.99999
ccmaxit=400
usedisk=0
ccsdalg=dfdirect
ccsdthreads=4
ccsdmkl=thr
ptthreads=4
lcorthr=tight
basis_sm=special
def2-SVP
def2-SVP
def2-SVP
def2-SVP
def2-SVP
def2-SVP
def2-SVP
def2-SVP
def2-SVP
def2-SVP
def2-SVP
def2-SVP
def2-SVP
def2-SVP
def2-SVP
def2-SVP
def2-SVP
def2-SVP
def2-SVP
def2-SVP
def2-SVP
def2-SVP
def2-SVP
def2-SVP
def2-SVP
def2-SVP
def2-SVP
def2-SVP
def2-SVP
def2-SVP
def2-SVP
def2-SVP
def2-SVP
def2-SVP
def2-SVP
def2-SVP
no-basis-set
no-basis-set
no-basis-set
no-basis-set
no-basis-set
no-basis-set
no-basis-set
no-basis-set
no-basis-set
no-basis-set
no-basis-set
no-basis-set
no-basis-set
no-basis-set
no-basis-set
no-basis-set
no-basis-set
no-basis-set
no-basis-set
no-basis-set
no-basis-set
no-basis-set
no-basis-set
no-basis-set
no-basis-set
no-basis-set
no-basis-set
no-basis-set
no-basis-set
no-basis-set
no-basis-set
no-basis-set
no-basis-set
no-basis-set
no-basis-set
no-basis-set
no-basis-set
no-basis-set
no-basis-set
no-basis-set
no-basis-set
no-basis-set
no-basis-set
no-basis-set
no-basis-set
no-basis-set
no-basis-set
no-basis-set
no-basis-set
no-basis-set
no-basis-set
no-basis-set
no-basis-set
no-basis-set
no-basis-set
no-basis-set
no-basis-set
no-basis-set
no-basis-set
no-basis-set
no-basis-set
no-basis-set
no-basis-set
no-basis-set
no-basis-set
no-basis-set
no-basis-set
no-basis-set
no-basis-set
no-basis-set
no-basis-set
no-basis-set
no-basis-set
no-basis-set
no-basis-set
no-basis-set
no-basis-set
no-basis-set
no-basis-set
no-basis-set
no-basis-set
no-basis-set
no-basis-set
no-basis-set
no-basis-set
no-basis-set
no-basis-set
no-basis-set
no-basis-set
no-basis-set
no-basis-set
no-basis-set
no-basis-set
no-basis-set
no-basis-set
no-basis-set
no-basis-set
no-basis-set
no-basis-set
no-basis-set
no-basis-set
no-basis-set
no-basis-set
no-basis-set
no-basis-set
no-basis-set
no-basis-set
no-basis-set
no-basis-set
no-basis-set
no-basis-set
no-basis-set
no-basis-set


basis=special
aug-cc-pVDZ
aug-cc-pVDZ
cc-pVDZ
aug-cc-pVDZ
aug-cc-pVDZ
aug-cc-pVDZ
aug-cc-pVDZ
aug-cc-pVDZ
cc-pVDZ
cc-pVDZ
cc-pVDZ
cc-pVDZ
aug-cc-pVDZ
aug-cc-pVDZ
aug-cc-pVDZ
aug-cc-pVDZ
cc-pVDZ
cc-pVDZ
cc-pVDZ
cc-pVDZ
aug-cc-pVDZ
aug-cc-pVDZ
aug-cc-pVDZ
aug-cc-pVDZ
aug-cc-pVDZ
aug-cc-pVDZ
aug-cc-pVDZ
aug-cc-pVDZ
aug-cc-pVDZ
aug-cc-pVDZ
aug-cc-pVDZ
aug-cc-pVDZ
aug-cc-pVDZ
aug-cc-pVDZ
aug-cc-pVDZ
aug-cc-pVDZ
no-basis-set
no-basis-set
no-basis-set
no-basis-set
no-basis-set
no-basis-set
no-basis-set
no-basis-set
no-basis-set
no-basis-set
no-basis-set
no-basis-set
no-basis-set
no-basis-set
no-basis-set
no-basis-set
no-basis-set
no-basis-set
no-basis-set
no-basis-set
no-basis-set
no-basis-set
no-basis-set
no-basis-set
no-basis-set
no-basis-set
no-basis-set
no-basis-set
no-basis-set
no-basis-set
no-basis-set
no-basis-set
no-basis-set
no-basis-set
no-basis-set
no-basis-set
no-basis-set
no-basis-set
no-basis-set
no-basis-set
no-basis-set
no-basis-set
no-basis-set
no-basis-set
no-basis-set
no-basis-set
no-basis-set
no-basis-set
no-basis-set
no-basis-set
no-basis-set
no-basis-set
no-basis-set
no-basis-set
no-basis-set
no-basis-set
no-basis-set
no-basis-set
no-basis-set
no-basis-set
no-basis-set
no-basis-set
no-basis-set
no-basis-set
no-basis-set
no-basis-set
no-basis-set
no-basis-set
no-basis-set
no-basis-set
no-basis-set
no-basis-set
no-basis-set
no-basis-set
no-basis-set
no-basis-set
no-basis-set
no-basis-set
no-basis-set
no-basis-set
no-basis-set
no-basis-set
no-basis-set
no-basis-set
no-basis-set
no-basis-set
no-basis-set
no-basis-set
no-basis-set
no-basis-set
no-basis-set
no-basis-set
no-basis-set
no-basis-set
no-basis-set
no-basis-set
no-basis-set
no-basis-set
no-basis-set
no-basis-set
no-basis-set
no-basis-set
no-basis-set
no-basis-set
no-basis-set
no-basis-set
no-basis-set
no-basis-set
no-basis-set
no-basis-set
no-basis-set
no-basis-set
no-basis-set


dfbasis_scf=special
def2-QZVPP-RI-JK
def2-QZVPP-RI-JK
def2-QZVPP-RI-JK
def2-QZVPP-RI-JK
def2-QZVPP-RI-JK
def2-QZVPP-RI-JK
def2-QZVPP-RI-JK
def2-QZVPP-RI-JK
def2-QZVPP-RI-JK
def2-QZVPP-RI-JK
def2-QZVPP-RI-JK
def2-QZVPP-RI-JK
def2-QZVPP-RI-JK
def2-QZVPP-RI-JK
def2-QZVPP-RI-JK
def2-QZVPP-RI-JK
def2-QZVPP-RI-JK
def2-QZVPP-RI-JK
def2-QZVPP-RI-JK
def2-QZVPP-RI-JK
def2-QZVPP-RI-JK
def2-QZVPP-RI-JK
def2-QZVPP-RI-JK
def2-QZVPP-RI-JK
def2-QZVPP-RI-JK
def2-QZVPP-RI-JK
def2-QZVPP-RI-JK
def2-QZVPP-RI-JK
def2-QZVPP-RI-JK
def2-QZVPP-RI-JK
def2-QZVPP-RI-JK
def2-QZVPP-RI-JK
def2-QZVPP-RI-JK
def2-QZVPP-RI-JK
def2-QZVPP-RI-JK
def2-QZVPP-RI-JK
no-basis-set
no-basis-set
no-basis-set
no-basis-set
no-basis-set
no-basis-set
no-basis-set
no-basis-set
no-basis-set
no-basis-set
no-basis-set
no-basis-set
no-basis-set
no-basis-set
no-basis-set
no-basis-set
no-basis-set
no-basis-set
no-basis-set
no-basis-set
no-basis-set
no-basis-set
no-basis-set
no-basis-set
no-basis-set
no-basis-set
no-basis-set
no-basis-set
no-basis-set
no-basis-set
no-basis-set
no-basis-set
no-basis-set
no-basis-set
no-basis-set
no-basis-set
no-basis-set
no-basis-set
no-basis-set
no-basis-set
no-basis-set
no-basis-set
no-basis-set
no-basis-set
no-basis-set
no-basis-set
no-basis-set
no-basis-set
no-basis-set
no-basis-set
no-basis-set
no-basis-set
no-basis-set
no-basis-set
no-basis-set
no-basis-set
no-basis-set
no-basis-set
no-basis-set
no-basis-set
no-basis-set
no-basis-set
no-basis-set
no-basis-set
no-basis-set
no-basis-set
no-basis-set
no-basis-set
no-basis-set
no-basis-set
no-basis-set
no-basis-set
no-basis-set
no-basis-set
no-basis-set
no-basis-set
no-basis-set
no-basis-set
no-basis-set
no-basis-set
no-basis-set
no-basis-set
no-basis-set
no-basis-set
no-basis-set
no-basis-set
no-basis-set
no-basis-set
no-basis-set
no-basis-set
no-basis-set
no-basis-set
no-basis-set
no-basis-set
no-basis-set
no-basis-set
no-basis-set
no-basis-set
no-basis-set
no-basis-set
no-basis-set
no-basis-set
no-basis-set
no-basis-set
no-basis-set
no-basis-set
no-basis-set
no-basis-set
no-basis-set
no-basis-set
no-basis-set
no-basis-set
no-basis-set


dfbasis_cor=special
aug-cc-pVDZ-RI
aug-cc-pVDZ-RI
cc-pVDZ-RI
aug-cc-pVDZ-RI
aug-cc-pVDZ-RI
aug-cc-pVDZ-RI
aug-cc-pVDZ-RI
aug-cc-pVDZ-RI
cc-pVDZ-RI
cc-pVDZ-RI
cc-pVDZ-RI
cc-pVDZ-RI
aug-cc-pVDZ-RI
aug-cc-pVDZ-RI
aug-cc-pVDZ-RI
aug-cc-pVDZ-RI
cc-pVDZ-RI
cc-pVDZ-RI
cc-pVDZ-RI
cc-pVDZ-RI
aug-cc-pVDZ-RI
aug-cc-pVDZ-RI
aug-cc-pVDZ-RI
aug-cc-pVDZ-RI
aug-cc-pVDZ-RI
aug-cc-pVDZ-RI
aug-cc-pVDZ-RI
aug-cc-pVDZ-RI
aug-cc-pVDZ-RI
aug-cc-pVDZ-RI
aug-cc-pVDZ-RI
aug-cc-pVDZ-RI
aug-cc-pVDZ-RI
aug-cc-pVDZ-RI
aug-cc-pVDZ-RI
aug-cc-pVDZ-RI
no-basis-set
no-basis-set
no-basis-set
no-basis-set
no-basis-set
no-basis-set
no-basis-set
no-basis-set
no-basis-set
no-basis-set
no-basis-set
no-basis-set
no-basis-set
no-basis-set
no-basis-set
no-basis-set
no-basis-set
no-basis-set
no-basis-set
no-basis-set
no-basis-set
no-basis-set
no-basis-set
no-basis-set
no-basis-set
no-basis-set
no-basis-set
no-basis-set
no-basis-set
no-basis-set
no-basis-set
no-basis-set
no-basis-set
no-basis-set
no-basis-set
no-basis-set
no-basis-set
no-basis-set
no-basis-set
no-basis-set
no-basis-set
no-basis-set
no-basis-set
no-basis-set
no-basis-set
no-basis-set
no-basis-set
no-basis-set
no-basis-set
no-basis-set
no-basis-set
no-basis-set
no-basis-set
no-basis-set
no-basis-set
no-basis-set
no-basis-set
no-basis-set
no-basis-set
no-basis-set
no-basis-set
no-basis-set
no-basis-set
no-basis-set
no-basis-set
no-basis-set
no-basis-set
no-basis-set
no-basis-set
no-basis-set
no-basis-set
no-basis-set
no-basis-set
no-basis-set
no-basis-set
no-basis-set
no-basis-set
no-basis-set
no-basis-set
no-basis-set
no-basis-set
no-basis-set
no-basis-set
no-basis-set
no-basis-set
no-basis-set
no-basis-set
no-basis-set
no-basis-set
no-basis-set
no-basis-set
no-basis-set
no-basis-set
no-basis-set
no-basis-set
no-basis-set
no-basis-set
no-basis-set
no-basis-set
no-basis-set
no-basis-set
no-basis-set
no-basis-set
no-basis-set
no-basis-set
no-basis-set
no-basis-set
no-basis-set
no-basis-set
no-basis-set
no-basis-set
no-basis-set
no-basis-set


ecp=special
none
none
none
none
none
none
none
none
none
none
none
none
none
none
none
none
none
none
none
none
none
none
none
none
none
none
none
none
none
none
none
none
none
none
none
none
capECP
capECP
capECP
capECP
capECP
capECP
capECP
capECP
capECP
capECP
capECP
capECP
capECP
capECP
capECP
capECP
capECP
capECP
capECP
capECP
capECP
capECP
capECP
capECP
capECP
capECP
capECP
capECP
capECP
capECP
capECP
capECP
capECP
capECP
capECP
capECP
capECP
capECP
capECP
capECP
capECP
capECP
capECP
capECP
capECP
capECP
capECP
capECP
capECP
capECP
capECP
capECP
capECP
capECP
capECP
capECP
capECP
capECP
capECP
capECP
capECP
capECP
capECP
capECP
capECP
capECP
capECP
capECP
capECP
capECP
capECP
capECP
capECP
capECP
capECP
capECP
capECP
capECP
capECP
capECP
capECP
capECP
capECP
capECP
capECP
capECP
capECP
capECP
capECP
capECP
capECP
capECP
capECP
capECP
capECP
capECP
capECP
capECP
capECP
capECP
capECP
capECP
capECP
capECP
capECP
capECP
capECP
capECP
capECP
capECP
capECP
capECP
capECP

charge=-32
mult=1
core=72
geom=xyz
149

C                       0.00000000000    0.00000000000    2.44102235837
O                       0.00000000000    0.00000000000    3.58784217303
Mg                      0.00000000000    0.00000000000    0.00000000000
O                      -2.12018425659    0.00000000000    0.00567209089
O                       0.00000000000    2.12018425659    0.00567209089
O                       2.12018425659    0.00000000000    0.00567209089
O                       0.00000000000   -2.12018425659    0.00567209089
O                       0.00000000000    0.00000000000   -2.14129966123
Mg                     -2.11144262254    2.11144262254   -0.04367284424
Mg                      2.11144262254    2.11144262254   -0.04367284424
Mg                      2.11144262254   -2.11144262254   -0.04367284424
Mg                     -2.11144262254   -2.11144262254   -0.04367284424
O                      -2.11070451449    2.11070451449   -2.14923989662
O                       2.11070451449    2.11070451449   -2.14923989662
O                       2.11070451449   -2.11070451449   -2.14923989662
O                      -2.11070451449   -2.11070451449   -2.14923989662
Mg                     -4.22049352791    0.00000000000   -0.04269731856
Mg                      0.00000000000    4.22049352791   -0.04269731856
Mg                      4.22049352791    0.00000000000   -0.04269731856
Mg                      0.00000000000   -4.22049352791   -0.04269731856
O                      -4.22049352791    2.11209139723    0.00772802266
O                      -2.11209139723    4.22049352791    0.00772802266
O                       2.11209139723    4.22049352791    0.00772802266
O                       4.22049352791    2.11209139723    0.00772802266
O                       4.22049352791   -2.11209139723    0.00772802266
O                       2.11209139723   -4.22049352791    0.00772802266
O                      -2.11209139723   -4.22049352791    0.00772802266
O                      -4.22049352791   -2.11209139723    0.00772802266
O                      -4.22049352791    0.00000000000   -2.15129719490
O                       0.00000000000    4.22049352791   -2.15129719490
O                       4.22049352791    0.00000000000   -2.15129719490
O                       0.00000000000   -4.22049352791   -2.15129719490
O                      -6.32080279923    0.00000000000    0.00567209089
O                       0.00000000000    6.32080279923    0.00567209089
O                       6.32080279923    0.00000000000    0.00567209089
O                       0.00000000000   -6.32080279923    0.00567209089
Mg                     -2.10705287155    0.00000000000   -2.14155206950
Mg                      0.00000000000    2.10705287155   -2.14155206950
Mg                      2.10705287155    0.00000000000   -2.14155206950
Mg                      0.00000000000   -2.10705287155   -2.14155206950
Mg                      0.00000000000    0.00000000000   -4.26789528527
Mg                     -4.22049352791    2.10973412517   -2.14445912302
Mg                     -2.10973412517    4.22049352791   -2.14445912302
Mg                      2.10973412517    4.22049352791   -2.14445912302
Mg                      4.22049352791    2.10973412517   -2.14445912302
Mg                      4.22049352791   -2.10973412517   -2.14445912302
Mg                      2.10973412517   -4.22049352791   -2.14445912302
Mg                     -2.10973412517   -4.22049352791   -2.14445912302
Mg                     -4.22049352791   -2.10973412517   -2.14445912302
Mg                     -2.11024676395    2.11024676395   -4.26789528527
Mg                      2.11024676395    2.11024676395   -4.26789528527
Mg                      2.11024676395   -2.11024676395   -4.26789528527
Mg                     -2.11024676395   -2.11024676395   -4.26789528527
Mg                     -4.22049352791    4.22049352791   -0.03992370948
Mg                      4.22049352791    4.22049352791   -0.03992370948
Mg                      4.22049352791   -4.22049352791   -0.03992370948
Mg                     -4.22049352791   -4.22049352791   -0.03992370948
Mg                     -4.22049352791    0.00000000000   -4.26789528527
Mg                      0.00000000000    4.22049352791   -4.26789528527
Mg                      4.22049352791    0.00000000000   -4.26789528527
Mg                      0.00000000000   -4.22049352791   -4.26789528527
Mg                     -6.32954443328    2.11144262254   -0.04367284424
Mg                     -2.11144262254    6.32954443328   -0.04367284424
Mg                      2.11144262254    6.32954443328   -0.04367284424
Mg                      6.32954443328    2.11144262254   -0.04367284424
Mg                      6.32954443328   -2.11144262254   -0.04367284424
Mg                      2.11144262254   -6.32954443328   -0.04367284424
Mg                     -2.11144262254   -6.32954443328   -0.04367284424
Mg                     -6.32954443328   -2.11144262254   -0.04367284424
Mg                     -6.33393418427    0.00000000000   -2.14155206950
Mg                      0.00000000000    6.33393418427   -2.14155206950
Mg                      6.33393418427    0.00000000000   -2.14155206950
Mg                      0.00000000000   -6.33393418427   -2.14155206950
Mg                     -2.11024676395    0.00000000000   -6.37814204923
Mg                      0.00000000000    2.11024676395   -6.37814204923
Mg                      2.11024676395    0.00000000000   -6.37814204923
Mg                      0.00000000000   -2.11024676395   -6.37814204923
Mg                     -4.22049352791    4.22049352791   -4.26789528527
Mg                      4.22049352791    4.22049352791   -4.26789528527
Mg                      4.22049352791   -4.22049352791   -4.26789528527
Mg                     -4.22049352791   -4.22049352791   -4.26789528527
Mg                     -6.33125293065    4.22049352791   -2.14445912302
Mg                     -4.22049352791    6.33125293065   -2.14445912302
Mg                      4.22049352791    6.33125293065   -2.14445912302
Mg                      6.33125293065    4.22049352791   -2.14445912302
Mg                      6.33125293065   -4.22049352791   -2.14445912302
Mg                      4.22049352791   -6.33125293065   -2.14445912302
Mg                     -4.22049352791   -6.33125293065   -2.14445912302
Mg                     -6.33125293065   -4.22049352791   -2.14445912302
Mg                     -6.33074029186    2.11024676395   -4.26789528527
Mg                     -2.11024676395    6.33074029186   -4.26789528527
Mg                      2.11024676395    6.33074029186   -4.26789528527
Mg                      6.33074029186    2.11024676395   -4.26789528527
Mg                      6.33074029186   -2.11024676395   -4.26789528527
Mg                      2.11024676395   -6.33074029186   -4.26789528527
Mg                     -2.11024676395   -6.33074029186   -4.26789528527
Mg                     -6.33074029186   -2.11024676395   -4.26789528527
Mg                     -4.22049352791    2.11024676395   -6.37814204923
Mg                     -2.11024676395    4.22049352791   -6.37814204923
Mg                      2.11024676395    4.22049352791   -6.37814204923
Mg                      4.22049352791    2.11024676395   -6.37814204923
Mg                      4.22049352791   -2.11024676395   -6.37814204923
Mg                      2.11024676395   -4.22049352791   -6.37814204923
Mg                     -2.11024676395   -4.22049352791   -6.37814204923
Mg                     -4.22049352791   -2.11024676395   -6.37814204923
Mg                     -8.44098705582    0.00000000000    0.00000000000
Mg                      0.00000000000    8.44098705582    0.00000000000
Mg                      8.44098705582    0.00000000000    0.00000000000
Mg                      0.00000000000   -8.44098705582    0.00000000000
Mg                     -6.32954443328    6.32954443328   -0.04367284424
Mg                      6.32954443328    6.32954443328   -0.04367284424
Mg                      6.32954443328   -6.32954443328   -0.04367284424
Mg                     -6.32954443328   -6.32954443328   -0.04367284424
Mg                     -8.44098705582    2.10705287155   -2.14155206950
Mg                     -2.10705287155    8.44098705582   -2.14155206950
Mg                      2.10705287155    8.44098705582   -2.14155206950
Mg                      8.44098705582    2.10705287155   -2.14155206950
Mg                      8.44098705582   -2.10705287155   -2.14155206950
Mg                      2.10705287155   -8.44098705582   -2.14155206950
Mg                     -2.10705287155   -8.44098705582   -2.14155206950
Mg                     -8.44098705582   -2.10705287155   -2.14155206950
Mg                     -6.33074029186    0.00000000000   -6.37814204923
Mg                      0.00000000000    6.33074029186   -6.37814204923
Mg                      6.33074029186    0.00000000000   -6.37814204923
Mg                      0.00000000000   -6.33074029186   -6.37814204923
Mg                     -8.44098705582    4.22049352791   -0.04269731856
Mg                     -4.22049352791    8.44098705582   -0.04269731856
Mg                      4.22049352791    8.44098705582   -0.04269731856
Mg                      8.44098705582    4.22049352791   -0.04269731856
Mg                      8.44098705582   -4.22049352791   -0.04269731856
Mg                      4.22049352791   -8.44098705582   -0.04269731856
Mg                     -4.22049352791   -8.44098705582   -0.04269731856
Mg                     -8.44098705582   -4.22049352791   -0.04269731856
Mg                     -8.44098705582    0.00000000000   -4.26789528527
Mg                      0.00000000000    8.44098705582   -4.26789528527
Mg                      8.44098705582    0.00000000000   -4.26789528527
Mg                      0.00000000000   -8.44098705582   -4.26789528527
Mg                    -10.55242967836    2.11144262254   -0.04367284424
Mg                     -2.11144262254   10.55242967836   -0.04367284424
Mg                      2.11144262254   10.55242967836   -0.04367284424
Mg                     10.55242967836    2.11144262254   -0.04367284424
Mg                     10.55242967836   -2.11144262254   -0.04367284424
Mg                      2.11144262254  -10.55242967836   -0.04367284424
Mg                     -2.11144262254  -10.55242967836   -0.04367284424
Mg                    -10.55242967836   -2.11144262254   -0.04367284424
Mg                    -10.54803992736    0.00000000000   -2.14155206950
Mg                      0.00000000000   10.54803992736   -2.14155206950
Mg                     10.54803992736    0.00000000000   -2.14155206950
Mg                      0.00000000000  -10.54803992736   -2.14155206950

ghost=serialno


qmmm=Amber
pointcharges
10157
    -2.10705287155    0.00000000000   -2.14155206950    2.00000000000
     0.00000000000    2.10705287155   -2.14155206950    2.00000000000
     2.10705287155    0.00000000000   -2.14155206950    2.00000000000
     0.00000000000   -2.10705287155   -2.14155206950    2.00000000000
     0.00000000000    0.00000000000   -4.26789528527    2.00000000000
    -2.11024676395    0.00000000000   -4.26789528527   -2.00000000000
     0.00000000000    2.11024676395   -4.26789528527   -2.00000000000
     2.11024676395    0.00000000000   -4.26789528527   -2.00000000000
     0.00000000000   -2.11024676395   -4.26789528527   -2.00000000000
    -4.22049352791    2.10973412517   -2.14445912302    2.00000000000
    -2.10973412517    4.22049352791   -2.14445912302    2.00000000000
     2.10973412517    4.22049352791   -2.14445912302    2.00000000000
     4.22049352791    2.10973412517   -2.14445912302    2.00000000000
     4.22049352791   -2.10973412517   -2.14445912302    2.00000000000
     2.10973412517   -4.22049352791   -2.14445912302    2.00000000000
    -2.10973412517   -4.22049352791   -2.14445912302    2.00000000000
    -4.22049352791   -2.10973412517   -2.14445912302    2.00000000000
    -2.11024676395    2.11024676395   -4.26789528527    2.00000000000
     2.11024676395    2.11024676395   -4.26789528527    2.00000000000
     2.11024676395   -2.11024676395   -4.26789528527    2.00000000000
    -2.11024676395   -2.11024676395   -4.26789528527    2.00000000000
    -4.22049352791    4.22049352791   -0.03992370948    2.00000000000
     4.22049352791    4.22049352791   -0.03992370948    2.00000000000
     4.22049352791   -4.22049352791   -0.03992370948    2.00000000000
    -4.22049352791   -4.22049352791   -0.03992370948    2.00000000000
    -4.22049352791    0.00000000000   -4.26789528527    2.00000000000
     0.00000000000    4.22049352791   -4.26789528527    2.00000000000
     4.22049352791    0.00000000000   -4.26789528527    2.00000000000
     0.00000000000   -4.22049352791   -4.26789528527    2.00000000000
    -4.22049352791    4.22049352791   -2.15028985266   -2.00000000000
     4.22049352791    4.22049352791   -2.15028985266   -2.00000000000
     4.22049352791   -4.22049352791   -2.15028985266   -2.00000000000
    -4.22049352791   -4.22049352791   -2.15028985266   -2.00000000000
    -4.22049352791    2.11024676395   -4.26789528527   -2.00000000000
    -2.11024676395    4.22049352791   -4.26789528527   -2.00000000000
     2.11024676395    4.22049352791   -4.26789528527   -2.00000000000
     4.22049352791    2.11024676395   -4.26789528527   -2.00000000000
     4.22049352791   -2.11024676395   -4.26789528527   -2.00000000000
     2.11024676395   -4.22049352791   -4.26789528527   -2.00000000000
    -2.11024676395   -4.22049352791   -4.26789528527   -2.00000000000
    -4.22049352791   -2.11024676395   -4.26789528527   -2.00000000000
     0.00000000000    0.00000000000   -6.37814204923   -2.00000000000
    -6.32954443328    2.11144262254   -0.04367284424    2.00000000000
    -2.11144262254    6.32954443328   -0.04367284424    2.00000000000
     2.11144262254    6.32954443328   -0.04367284424    2.00000000000
     6.32954443328    2.11144262254   -0.04367284424    2.00000000000
     6.32954443328   -2.11144262254   -0.04367284424    2.00000000000
     2.11144262254   -6.32954443328   -0.04367284424    2.00000000000
    -2.11144262254   -6.32954443328   -0.04367284424    2.00000000000
    -6.32954443328   -2.11144262254   -0.04367284424    2.00000000000
    -6.33393418427    0.00000000000   -2.14155206950    2.00000000000
     0.00000000000    6.33393418427   -2.14155206950    2.00000000000
     6.33393418427    0.00000000000   -2.14155206950    2.00000000000
     0.00000000000   -6.33393418427   -2.14155206950    2.00000000000
    -2.11024676395    0.00000000000   -6.37814204923    2.00000000000
     0.00000000000    2.11024676395   -6.37814204923    2.00000000000
     2.11024676395    0.00000000000   -6.37814204923    2.00000000000
     0.00000000000   -2.11024676395   -6.37814204923    2.00000000000
    -6.33028254133    2.11070451449   -2.14923989662   -2.00000000000
    -2.11070451449    6.33028254133   -2.14923989662   -2.00000000000
     2.11070451449    6.33028254133   -2.14923989662   -2.00000000000
     6.33028254133    2.11070451449   -2.14923989662   -2.00000000000
     6.33028254133   -2.11070451449   -2.14923989662   -2.00000000000
     2.11070451449   -6.33028254133   -2.14923989662   -2.00000000000
    -2.11070451449   -6.33028254133   -2.14923989662   -2.00000000000
    -6.33028254133   -2.11070451449   -2.14923989662   -2.00000000000
    -2.11024676395    2.11024676395   -6.37814204923   -2.00000000000
     2.11024676395    2.11024676395   -6.37814204923   -2.00000000000
     2.11024676395   -2.11024676395   -6.37814204923   -2.00000000000
    -2.11024676395   -2.11024676395   -6.37814204923   -2.00000000000
    -4.22049352791    4.22049352791   -4.26789528527    2.00000000000
     4.22049352791    4.22049352791   -4.26789528527    2.00000000000
     4.22049352791   -4.22049352791   -4.26789528527    2.00000000000
    -4.22049352791   -4.22049352791   -4.26789528527    2.00000000000
    -6.32889565859    4.22049352791    0.00772802266   -2.00000000000
    -4.22049352791    6.32889565859    0.00772802266   -2.00000000000
     4.22049352791    6.32889565859    0.00772802266   -2.00000000000
     6.32889565859    4.22049352791    0.00772802266   -2.00000000000
     6.32889565859   -4.22049352791    0.00772802266   -2.00000000000
     4.22049352791   -6.32889565859    0.00772802266   -2.00000000000
    -4.22049352791   -6.32889565859    0.00772802266   -2.00000000000
    -6.32889565859   -4.22049352791    0.00772802266   -2.00000000000
    -6.33074029186    0.00000000000   -4.26789528527   -2.00000000000
     0.00000000000    6.33074029186   -4.26789528527   -2.00000000000
     6.33074029186    0.00000000000   -4.26789528527   -2.00000000000
     0.00000000000   -6.33074029186   -4.26789528527   -2.00000000000
    -4.22049352791    0.00000000000   -6.37814204923   -2.00000000000
     0.00000000000    4.22049352791   -6.37814204923   -2.00000000000
     4.22049352791    0.00000000000   -6.37814204923   -2.00000000000
     0.00000000000   -4.22049352791   -6.37814204923   -2.00000000000
    -6.33125293065    4.22049352791   -2.14445912302    2.00000000000
    -4.22049352791    6.33125293065   -2.14445912302    2.00000000000
     4.22049352791    6.33125293065   -2.14445912302    2.00000000000
     6.33125293065    4.22049352791   -2.14445912302    2.00000000000
     6.33125293065   -4.22049352791   -2.14445912302    2.00000000000
     4.22049352791   -6.33125293065   -2.14445912302    2.00000000000
    -4.22049352791   -6.33125293065   -2.14445912302    2.00000000000
    -6.33125293065   -4.22049352791   -2.14445912302    2.00000000000
    -6.33074029186    2.11024676395   -4.26789528527    2.00000000000
    -2.11024676395    6.33074029186   -4.26789528527    2.00000000000
     2.11024676395    6.33074029186   -4.26789528527    2.00000000000
     6.33074029186    2.11024676395   -4.26789528527    2.00000000000
     6.33074029186   -2.11024676395   -4.26789528527    2.00000000000
     2.11024676395   -6.33074029186   -4.26789528527    2.00000000000
    -2.11024676395   -6.33074029186   -4.26789528527    2.00000000000
    -6.33074029186   -2.11024676395   -4.26789528527    2.00000000000
    -4.22049352791    2.11024676395   -6.37814204923    2.00000000000
    -2.11024676395    4.22049352791   -6.37814204923    2.00000000000
     2.11024676395    4.22049352791   -6.37814204923    2.00000000000
     4.22049352791    2.11024676395   -6.37814204923    2.00000000000
     4.22049352791   -2.11024676395   -6.37814204923    2.00000000000
     2.11024676395   -4.22049352791   -6.37814204923    2.00000000000
    -2.11024676395   -4.22049352791   -6.37814204923    2.00000000000
    -4.22049352791   -2.11024676395   -6.37814204923    2.00000000000
    -8.44098705582    0.00000000000    0.00000000000    2.00000000000
     0.00000000000    8.44098705582    0.00000000000    2.00000000000
     8.44098705582    0.00000000000    0.00000000000    2.00000000000
     0.00000000000   -8.44098705582    0.00000000000    2.00000000000
    -8.44098705582    2.12018425659    0.00567209089   -2.00000000000
    -2.12018425659    8.44098705582    0.00567209089   -2.00000000000
     2.12018425659    8.44098705582    0.00567209089   -2.00000000000
     8.44098705582    2.12018425659    0.00567209089   -2.00000000000
     8.44098705582   -2.12018425659    0.00567209089   -2.00000000000
     2.12018425659   -8.44098705582    0.00567209089   -2.00000000000
    -2.12018425659   -8.44098705582    0.00567209089   -2.00000000000
    -8.44098705582   -2.12018425659    0.00567209089   -2.00000000000
    -8.44098705582    0.00000000000   -2.14129966123   -2.00000000000
     0.00000000000    8.44098705582   -2.14129966123   -2.00000000000
     8.44098705582    0.00000000000   -2.14129966123   -2.00000000000
     0.00000000000   -8.44098705582   -2.14129966123   -2.00000000000
    -6.33074029186    4.22049352791   -4.26789528527   -2.00000000000
    -4.22049352791    6.33074029186   -4.26789528527   -2.00000000000
     4.22049352791    6.33074029186   -4.26789528527   -2.00000000000
     6.33074029186    4.22049352791   -4.26789528527   -2.00000000000
     6.33074029186   -4.22049352791   -4.26789528527   -2.00000000000
     4.22049352791   -6.33074029186   -4.26789528527   -2.00000000000
    -4.22049352791   -6.33074029186   -4.26789528527   -2.00000000000
    -6.33074029186   -4.22049352791   -4.26789528527   -2.00000000000
    -4.22049352791    4.22049352791   -6.37814204923   -2.00000000000
     4.22049352791    4.22049352791   -6.37814204923   -2.00000000000
     4.22049352791   -4.22049352791   -6.37814204923   -2.00000000000
    -4.22049352791   -4.22049352791   -6.37814204923   -2.00000000000
    -6.32954443328    6.32954443328   -0.04367284424    2.00000000000
     6.32954443328    6.32954443328   -0.04367284424    2.00000000000
     6.32954443328   -6.32954443328   -0.04367284424    2.00000000000
    -6.32954443328   -6.32954443328   -0.04367284424    2.00000000000
    -8.44098705582    2.10705287155   -2.14155206950    2.00000000000
    -2.10705287155    8.44098705582   -2.14155206950    2.00000000000
     2.10705287155    8.44098705582   -2.14155206950    2.00000000000
     8.44098705582    2.10705287155   -2.14155206950    2.00000000000
     8.44098705582   -2.10705287155   -2.14155206950    2.00000000000
     2.10705287155   -8.44098705582   -2.14155206950    2.00000000000
    -2.10705287155   -8.44098705582   -2.14155206950    2.00000000000
    -8.44098705582   -2.10705287155   -2.14155206950    2.00000000000
    -6.33074029186    0.00000000000   -6.37814204923    2.00000000000
     0.00000000000    6.33074029186   -6.37814204923    2.00000000000
     6.33074029186    0.00000000000   -6.37814204923    2.00000000000
     0.00000000000   -6.33074029186   -6.37814204923    2.00000000000
    -6.33028254133    6.33028254133   -2.14923989662   -2.00000000000
     6.33028254133    6.33028254133   -2.14923989662   -2.00000000000
     6.33028254133   -6.33028254133   -2.14923989662   -2.00000000000
    -6.33028254133   -6.33028254133   -2.14923989662   -2.00000000000
    -6.33074029186    2.11024676395   -6.37814204923   -2.00000000000
    -2.11024676395    6.33074029186   -6.37814204923   -2.00000000000
     2.11024676395    6.33074029186   -6.37814204923   -2.00000000000
     6.33074029186    2.11024676395   -6.37814204923   -2.00000000000
     6.33074029186   -2.11024676395   -6.37814204923   -2.00000000000
     2.11024676395   -6.33074029186   -6.37814204923   -2.00000000000
    -2.11024676395   -6.33074029186   -6.37814204923   -2.00000000000
    -6.33074029186   -2.11024676395   -6.37814204923   -2.00000000000
    -8.44098705582    4.22049352791   -0.04269731856    2.00000000000
    -4.22049352791    8.44098705582   -0.04269731856    2.00000000000
     4.22049352791    8.44098705582   -0.04269731856    2.00000000000
     8.44098705582    4.22049352791   -0.04269731856    2.00000000000
     8.44098705582   -4.22049352791   -0.04269731856    2.00000000000
     4.22049352791   -8.44098705582   -0.04269731856    2.00000000000
    -4.22049352791   -8.44098705582   -0.04269731856    2.00000000000
    -8.44098705582   -4.22049352791   -0.04269731856    2.00000000000
    -8.44098705582    0.00000000000   -4.26789528527    2.00000000000
     0.00000000000    8.44098705582   -4.26789528527    2.00000000000
     8.44098705582    0.00000000000   -4.26789528527    2.00000000000
     0.00000000000   -8.44098705582   -4.26789528527    2.00000000000
    -8.44098705582    4.22049352791   -2.15129719490   -2.00000000000
    -4.22049352791    8.44098705582   -2.15129719490   -2.00000000000
     4.22049352791    8.44098705582   -2.15129719490   -2.00000000000
     8.44098705582    4.22049352791   -2.15129719490   -2.00000000000
     8.44098705582   -4.22049352791   -2.15129719490   -2.00000000000
     4.22049352791   -8.44098705582   -2.15129719490   -2.00000000000
    -4.22049352791   -8.44098705582   -2.15129719490   -2.00000000000
    -8.44098705582   -4.22049352791   -2.15129719490   -2.00000000000
    -8.44098705582    2.11024676395   -4.26789528527   -2.00000000000
    -2.11024676395    8.44098705582   -4.26789528527   -2.00000000000
     2.11024676395    8.44098705582   -4.26789528527   -2.00000000000
     8.44098705582    2.11024676395   -4.26789528527   -2.00000000000
     8.44098705582   -2.11024676395   -4.26789528527   -2.00000000000
     2.11024676395   -8.44098705582   -4.26789528527   -2.00000000000
    -2.11024676395   -8.44098705582   -4.26789528527   -2.00000000000
    -8.44098705582   -2.11024676395   -4.26789528527   -2.00000000000
    -6.33074029186    6.33074029186   -4.26789528527    2.00000000000
     6.33074029186    6.33074029186   -4.26789528527    2.00000000000
     6.33074029186   -6.33074029186   -4.26789528527    2.00000000000
    -6.33074029186   -6.33074029186   -4.26789528527    2.00000000000
    -6.33074029186    4.22049352791   -6.37814204923    2.00000000000
    -4.22049352791    6.33074029186   -6.37814204923    2.00000000000
     4.22049352791    6.33074029186   -6.37814204923    2.00000000000
     6.33074029186    4.22049352791   -6.37814204923    2.00000000000
     6.33074029186   -4.22049352791   -6.37814204923    2.00000000000
     4.22049352791   -6.33074029186   -6.37814204923    2.00000000000
    -4.22049352791   -6.33074029186   -6.37814204923    2.00000000000
    -6.33074029186   -4.22049352791   -6.37814204923    2.00000000000
    -8.44098705582    4.22049352791   -4.26789528527    2.00000000000
    -4.22049352791    8.44098705582   -4.26789528527    2.00000000000
     4.22049352791    8.44098705582   -4.26789528527    2.00000000000
     8.44098705582    4.22049352791   -4.26789528527    2.00000000000
     8.44098705582   -4.22049352791   -4.26789528527    2.00000000000
     4.22049352791   -8.44098705582   -4.26789528527    2.00000000000
    -4.22049352791   -8.44098705582   -4.26789528527    2.00000000000
    -8.44098705582   -4.22049352791   -4.26789528527    2.00000000000
    -8.44098705582    6.32080279923    0.00567209089   -2.00000000000
    -6.32080279923    8.44098705582    0.00567209089   -2.00000000000
     6.32080279923    8.44098705582    0.00567209089   -2.00000000000
     8.44098705582    6.32080279923    0.00567209089   -2.00000000000
     8.44098705582   -6.32080279923    0.00567209089   -2.00000000000
     6.32080279923   -8.44098705582    0.00567209089   -2.00000000000
    -6.32080279923   -8.44098705582    0.00567209089   -2.00000000000
    -8.44098705582   -6.32080279923    0.00567209089   -2.00000000000
   -10.56117131241    0.00000000000    0.00567209089   -2.00000000000
     0.00000000000   10.56117131241    0.00567209089   -2.00000000000
    10.56117131241    0.00000000000    0.00567209089   -2.00000000000
     0.00000000000  -10.56117131241    0.00567209089   -2.00000000000
    -8.44098705582    0.00000000000   -6.37814204923   -2.00000000000
     0.00000000000    8.44098705582   -6.37814204923   -2.00000000000
     8.44098705582    0.00000000000   -6.37814204923   -2.00000000000
     0.00000000000   -8.44098705582   -6.37814204923   -2.00000000000
   -10.55242967836    2.11144262254   -0.04367284424    2.00000000000
    -2.11144262254   10.55242967836   -0.04367284424    2.00000000000
     2.11144262254   10.55242967836   -0.04367284424    2.00000000000
    10.55242967836    2.11144262254   -0.04367284424    2.00000000000
    10.55242967836   -2.11144262254   -0.04367284424    2.00000000000
     2.11144262254  -10.55242967836   -0.04367284424    2.00000000000
    -2.11144262254  -10.55242967836   -0.04367284424    2.00000000000
   -10.55242967836   -2.11144262254   -0.04367284424    2.00000000000
   -10.54803992736    0.00000000000   -2.14155206950    2.00000000000
     0.00000000000   10.54803992736   -2.14155206950    2.00000000000
    10.54803992736    0.00000000000   -2.14155206950    2.00000000000
     0.00000000000  -10.54803992736   -2.14155206950    2.00000000000
    -8.44098705582    6.33393418427   -2.14155206950    2.00000000000
    -6.33393418427    8.44098705582   -2.14155206950    2.00000000000
     6.33393418427    8.44098705582   -2.14155206950    2.00000000000
     8.44098705582    6.33393418427   -2.14155206950    2.00000000000
     8.44098705582   -6.33393418427   -2.14155206950    2.00000000000
     6.33393418427   -8.44098705582   -2.14155206950    2.00000000000
    -6.33393418427   -8.44098705582   -2.14155206950    2.00000000000
    -8.44098705582   -6.33393418427   -2.14155206950    2.00000000000
    -8.44098705582    2.11024676395   -6.37814204923    2.00000000000
    -2.11024676395    8.44098705582   -6.37814204923    2.00000000000
     2.11024676395    8.44098705582   -6.37814204923    2.00000000000
     8.44098705582    2.11024676395   -6.37814204923    2.00000000000
     8.44098705582   -2.11024676395   -6.37814204923    2.00000000000
     2.11024676395   -8.44098705582   -6.37814204923    2.00000000000
    -2.11024676395   -8.44098705582   -6.37814204923    2.00000000000
    -8.44098705582   -2.11024676395   -6.37814204923    2.00000000000
   -10.55169157031    2.11070451449   -2.14923989662   -2.00000000000
    -2.11070451449   10.55169157031   -2.14923989662   -2.00000000000
     2.11070451449   10.55169157031   -2.14923989662   -2.00000000000
    10.55169157031    2.11070451449   -2.14923989662   -2.00000000000
    10.55169157031   -2.11070451449   -2.14923989662   -2.00000000000
     2.11070451449  -10.55169157031   -2.14923989662   -2.00000000000
    -2.11070451449  -10.55169157031   -2.14923989662   -2.00000000000
   -10.55169157031   -2.11070451449   -2.14923989662   -2.00000000000
    -6.33074029186    6.33074029186   -6.37814204923   -2.00000000000
     6.33074029186    6.33074029186   -6.37814204923   -2.00000000000
     6.33074029186   -6.33074029186   -6.37814204923   -2.00000000000
    -6.33074029186   -6.33074029186   -6.37814204923   -2.00000000000
   -10.55307845305    4.22049352791    0.00772802266   -2.00000000000
    -4.22049352791   10.55307845305    0.00772802266   -2.00000000000
     4.22049352791   10.55307845305    0.00772802266   -2.00000000000
    10.55307845305    4.22049352791    0.00772802266   -2.00000000000
    10.55307845305   -4.22049352791    0.00772802266   -2.00000000000
     4.22049352791  -10.55307845305    0.00772802266   -2.00000000000
    -4.22049352791  -10.55307845305    0.00772802266   -2.00000000000
   -10.55307845305   -4.22049352791    0.00772802266   -2.00000000000
   -10.55123381977    0.00000000000   -4.26789528527   -2.00000000000
    -8.44098705582    6.33074029186   -4.26789528527   -2.00000000000
    -6.33074029186    8.44098705582   -4.26789528527   -2.00000000000
     0.00000000000   10.55123381977   -4.26789528527   -2.00000000000
     6.33074029186    8.44098705582   -4.26789528527   -2.00000000000
     8.44098705582    6.33074029186   -4.26789528527   -2.00000000000
    10.55123381977    0.00000000000   -4.26789528527   -2.00000000000
     8.44098705582   -6.33074029186   -4.26789528527   -2.00000000000
     6.33074029186   -8.44098705582   -4.26789528527   -2.00000000000
     0.00000000000  -10.55123381977   -4.26789528527   -2.00000000000
    -6.33074029186   -8.44098705582   -4.26789528527   -2.00000000000
    -8.44098705582   -6.33074029186   -4.26789528527   -2.00000000000
    -8.44098705582    4.22049352791   -6.37814204923   -2.00000000000
    -4.22049352791    8.44098705582   -6.37814204923   -2.00000000000
     4.22049352791    8.44098705582   -6.37814204923   -2.00000000000
     8.44098705582    4.22049352791   -6.37814204923   -2.00000000000
     8.44098705582   -4.22049352791   -6.37814204923   -2.00000000000
     4.22049352791   -8.44098705582   -6.37814204923   -2.00000000000
    -4.22049352791   -8.44098705582   -6.37814204923   -2.00000000000
    -8.44098705582   -4.22049352791   -6.37814204923   -2.00000000000
   -10.55072118099    4.22049352791   -2.14445912302    2.00000000000
    -4.22049352791   10.55072118099   -2.14445912302    2.00000000000
     4.22049352791   10.55072118099   -2.14445912302    2.00000000000
    10.55072118099    4.22049352791   -2.14445912302    2.00000000000
    10.55072118099   -4.22049352791   -2.14445912302    2.00000000000
     4.22049352791  -10.55072118099   -2.14445912302    2.00000000000
    -4.22049352791  -10.55072118099   -2.14445912302    2.00000000000
   -10.55072118099   -4.22049352791   -2.14445912302    2.00000000000
   -10.55123381977    2.11024676395   -4.26789528527    2.00000000000
    -2.11024676395   10.55123381977   -4.26789528527    2.00000000000
     2.11024676395   10.55123381977   -4.26789528527    2.00000000000
    10.55123381977    2.11024676395   -4.26789528527    2.00000000000
    10.55123381977   -2.11024676395   -4.26789528527    2.00000000000
     2.11024676395  -10.55123381977   -4.26789528527    2.00000000000
    -2.11024676395  -10.55123381977   -4.26789528527    2.00000000000
   -10.55123381977   -2.11024676395   -4.26789528527    2.00000000000
    -8.44098705582    8.44098705582    0.00000000000    2.00000000000
     8.44098705582    8.44098705582    0.00000000000    2.00000000000
     8.44098705582   -8.44098705582    0.00000000000    2.00000000000
    -8.44098705582   -8.44098705582    0.00000000000    2.00000000000
    -8.44098705582    8.44098705582   -2.14129966123   -2.00000000000
     8.44098705582    8.44098705582   -2.14129966123   -2.00000000000
     8.44098705582   -8.44098705582   -2.14129966123   -2.00000000000
    -8.44098705582   -8.44098705582   -2.14129966123   -2.00000000000
   -10.55123381977    4.22049352791   -4.26789528527   -2.00000000000
    -4.22049352791   10.55123381977   -4.26789528527   -2.00000000000
     4.22049352791   10.55123381977   -4.26789528527   -2.00000000000
    10.55123381977    4.22049352791   -4.26789528527   -2.00000000000
    10.55123381977   -4.22049352791   -4.26789528527   -2.00000000000
     4.22049352791  -10.55123381977   -4.26789528527   -2.00000000000
    -4.22049352791  -10.55123381977   -4.26789528527   -2.00000000000
   -10.55123381977   -4.22049352791   -4.26789528527   -2.00000000000
   -10.55242967836    6.32954443328   -0.04367284424    2.00000000000
    -6.32954443328   10.55242967836   -0.04367284424    2.00000000000
     6.32954443328   10.55242967836   -0.04367284424    2.00000000000
    10.55242967836    6.32954443328   -0.04367284424    2.00000000000
    10.55242967836   -6.32954443328   -0.04367284424    2.00000000000
     6.32954443328  -10.55242967836   -0.04367284424    2.00000000000
    -6.32954443328  -10.55242967836   -0.04367284424    2.00000000000
   -10.55242967836   -6.32954443328   -0.04367284424    2.00000000000
   -10.55123381977    0.00000000000   -6.37814204923    2.00000000000
    -8.44098705582    6.33074029186   -6.37814204923    2.00000000000
    -6.33074029186    8.44098705582   -6.37814204923    2.00000000000
     0.00000000000   10.55123381977   -6.37814204923    2.00000000000
     6.33074029186    8.44098705582   -6.37814204923    2.00000000000
     8.44098705582    6.33074029186   -6.37814204923    2.00000000000
    10.55123381977    0.00000000000   -6.37814204923    2.00000000000
     8.44098705582   -6.33074029186   -6.37814204923    2.00000000000
     6.33074029186   -8.44098705582   -6.37814204923    2.00000000000
     0.00000000000  -10.55123381977   -6.37814204923    2.00000000000
    -6.33074029186   -8.44098705582   -6.37814204923    2.00000000000
    -8.44098705582   -6.33074029186   -6.37814204923    2.00000000000
   -10.55169157031    6.33028254133   -2.14923989662   -2.00000000000
    -6.33028254133   10.55169157031   -2.14923989662   -2.00000000000
     6.33028254133   10.55169157031   -2.14923989662   -2.00000000000
    10.55169157031    6.33028254133   -2.14923989662   -2.00000000000
    10.55169157031   -6.33028254133   -2.14923989662   -2.00000000000
     6.33028254133  -10.55169157031   -2.14923989662   -2.00000000000
    -6.33028254133  -10.55169157031   -2.14923989662   -2.00000000000
   -10.55169157031   -6.33028254133   -2.14923989662   -2.00000000000
   -10.55123381977    2.11024676395   -6.37814204923   -2.00000000000
    -2.11024676395   10.55123381977   -6.37814204923   -2.00000000000
     2.11024676395   10.55123381977   -6.37814204923   -2.00000000000
    10.55123381977    2.11024676395   -6.37814204923   -2.00000000000
    10.55123381977   -2.11024676395   -6.37814204923   -2.00000000000
     2.11024676395  -10.55123381977   -6.37814204923   -2.00000000000
    -2.11024676395  -10.55123381977   -6.37814204923   -2.00000000000
   -10.55123381977   -2.11024676395   -6.37814204923   -2.00000000000
   -12.66148058373    0.00000000000   -0.04269731856    2.00000000000
     0.00000000000   12.66148058373   -0.04269731856    2.00000000000
    12.66148058373    0.00000000000   -0.04269731856    2.00000000000
     0.00000000000  -12.66148058373   -0.04269731856    2.00000000000
    -8.44098705582    8.44098705582   -4.26789528527    2.00000000000
     8.44098705582    8.44098705582   -4.26789528527    2.00000000000
     8.44098705582   -8.44098705582   -4.26789528527    2.00000000000
    -8.44098705582   -8.44098705582   -4.26789528527    2.00000000000
   -12.66148058373    2.11209139723    0.00772802266   -2.00000000000
    -2.11209139723   12.66148058373    0.00772802266   -2.00000000000
     2.11209139723   12.66148058373    0.00772802266   -2.00000000000
    12.66148058373    2.11209139723    0.00772802266   -2.00000000000
    12.66148058373   -2.11209139723    0.00772802266   -2.00000000000
     2.11209139723  -12.66148058373    0.00772802266   -2.00000000000
    -2.11209139723  -12.66148058373    0.00772802266   -2.00000000000
   -12.66148058373   -2.11209139723    0.00772802266   -2.00000000000
   -12.66148058373    0.00000000000   -2.15129719490   -2.00000000000
     0.00000000000   12.66148058373   -2.15129719490   -2.00000000000
    12.66148058373    0.00000000000   -2.15129719490   -2.00000000000
     0.00000000000  -12.66148058373   -2.15129719490   -2.00000000000
   -12.66148058373    2.10973412517   -2.14445912302    2.00000000000
    -2.10973412517   12.66148058373   -2.14445912302    2.00000000000
     2.10973412517   12.66148058373   -2.14445912302    2.00000000000
    12.66148058373    2.10973412517   -2.14445912302    2.00000000000
    12.66148058373   -2.10973412517   -2.14445912302    2.00000000000
     2.10973412517  -12.66148058373   -2.14445912302    2.00000000000
    -2.10973412517  -12.66148058373   -2.14445912302    2.00000000000
   -12.66148058373   -2.10973412517   -2.14445912302    2.00000000000
   -10.55123381977    6.33074029186   -4.26789528527    2.00000000000
    -6.33074029186   10.55123381977   -4.26789528527    2.00000000000
     6.33074029186   10.55123381977   -4.26789528527    2.00000000000
    10.55123381977    6.33074029186   -4.26789528527    2.00000000000
    10.55123381977   -6.33074029186   -4.26789528527    2.00000000000
     6.33074029186  -10.55123381977   -4.26789528527    2.00000000000
    -6.33074029186  -10.55123381977   -4.26789528527    2.00000000000
   -10.55123381977   -6.33074029186   -4.26789528527    2.00000000000
   -10.55123381977    4.22049352791   -6.37814204923    2.00000000000
    -4.22049352791   10.55123381977   -6.37814204923    2.00000000000
     4.22049352791   10.55123381977   -6.37814204923    2.00000000000
    10.55123381977    4.22049352791   -6.37814204923    2.00000000000
    10.55123381977   -4.22049352791   -6.37814204923    2.00000000000
     4.22049352791  -10.55123381977   -6.37814204923    2.00000000000
    -4.22049352791  -10.55123381977   -6.37814204923    2.00000000000
   -10.55123381977   -4.22049352791   -6.37814204923    2.00000000000
   -12.66148058373    4.22049352791   -0.03992370948    2.00000000000
    -4.22049352791   12.66148058373   -0.03992370948    2.00000000000
     4.22049352791   12.66148058373   -0.03992370948    2.00000000000
    12.66148058373    4.22049352791   -0.03992370948    2.00000000000
    12.66148058373   -4.22049352791   -0.03992370948    2.00000000000
     4.22049352791  -12.66148058373   -0.03992370948    2.00000000000
    -4.22049352791  -12.66148058373   -0.03992370948    2.00000000000
   -12.66148058373   -4.22049352791   -0.03992370948    2.00000000000
   -12.66148058373    0.00000000000   -4.26789528527    2.00000000000
     0.00000000000   12.66148058373   -4.26789528527    2.00000000000
    12.66148058373    0.00000000000   -4.26789528527    2.00000000000
     0.00000000000  -12.66148058373   -4.26789528527    2.00000000000
   -12.66148058373    4.22049352791   -2.15028985266   -2.00000000000
    -4.22049352791   12.66148058373   -2.15028985266   -2.00000000000
     4.22049352791   12.66148058373   -2.15028985266   -2.00000000000
    12.66148058373    4.22049352791   -2.15028985266   -2.00000000000
    12.66148058373   -4.22049352791   -2.15028985266   -2.00000000000
     4.22049352791  -12.66148058373   -2.15028985266   -2.00000000000
    -4.22049352791  -12.66148058373   -2.15028985266   -2.00000000000
   -12.66148058373   -4.22049352791   -2.15028985266   -2.00000000000
   -10.56117131241    8.44098705582    0.00567209089   -2.00000000000
    -8.44098705582   10.56117131241    0.00567209089   -2.00000000000
     8.44098705582   10.56117131241    0.00567209089   -2.00000000000
    10.56117131241    8.44098705582    0.00567209089   -2.00000000000
    10.56117131241   -8.44098705582    0.00567209089   -2.00000000000
     8.44098705582  -10.56117131241    0.00567209089   -2.00000000000
    -8.44098705582  -10.56117131241    0.00567209089   -2.00000000000
   -10.56117131241   -8.44098705582    0.00567209089   -2.00000000000
   -12.66148058373    2.11024676395   -4.26789528527   -2.00000000000
    -2.11024676395   12.66148058373   -4.26789528527   -2.00000000000
     2.11024676395   12.66148058373   -4.26789528527   -2.00000000000
    12.66148058373    2.11024676395   -4.26789528527   -2.00000000000
    12.66148058373   -2.11024676395   -4.26789528527   -2.00000000000
     2.11024676395  -12.66148058373   -4.26789528527   -2.00000000000
    -2.11024676395  -12.66148058373   -4.26789528527   -2.00000000000
   -12.66148058373   -2.11024676395   -4.26789528527   -2.00000000000
    -8.44098705582    8.44098705582   -6.37814204923   -2.00000000000
     8.44098705582    8.44098705582   -6.37814204923   -2.00000000000
     8.44098705582   -8.44098705582   -6.37814204923   -2.00000000000
    -8.44098705582   -8.44098705582   -6.37814204923   -2.00000000000
   -10.54803992736    8.44098705582   -2.14155206950    2.00000000000
    -8.44098705582   10.54803992736   -2.14155206950    2.00000000000
     8.44098705582   10.54803992736   -2.14155206950    2.00000000000
    10.54803992736    8.44098705582   -2.14155206950    2.00000000000
    10.54803992736   -8.44098705582   -2.14155206950    2.00000000000
     8.44098705582  -10.54803992736   -2.14155206950    2.00000000000
    -8.44098705582  -10.54803992736   -2.14155206950    2.00000000000
   -10.54803992736   -8.44098705582   -2.14155206950    2.00000000000
   -10.55123381977    6.33074029186   -6.37814204923   -2.00000000000
    -6.33074029186   10.55123381977   -6.37814204923   -2.00000000000
     6.33074029186   10.55123381977   -6.37814204923   -2.00000000000
    10.55123381977    6.33074029186   -6.37814204923   -2.00000000000
    10.55123381977   -6.33074029186   -6.37814204923   -2.00000000000
     6.33074029186  -10.55123381977   -6.37814204923   -2.00000000000
    -6.33074029186  -10.55123381977   -6.37814204923   -2.00000000000
   -10.55123381977   -6.33074029186   -6.37814204923   -2.00000000000
   -12.66148058373    4.22049352791   -4.26789528527    2.00000000000
    -4.22049352791   12.66148058373   -4.26789528527    2.00000000000
     4.22049352791   12.66148058373   -4.26789528527    2.00000000000
    12.66148058373    4.22049352791   -4.26789528527    2.00000000000
    12.66148058373   -4.22049352791   -4.26789528527    2.00000000000
     4.22049352791  -12.66148058373   -4.26789528527    2.00000000000
    -4.22049352791  -12.66148058373   -4.26789528527    2.00000000000
   -12.66148058373   -4.22049352791   -4.26789528527    2.00000000000
   -12.66148058373    6.32889565859    0.00772802266   -2.00000000000
    -6.32889565859   12.66148058373    0.00772802266   -2.00000000000
     6.32889565859   12.66148058373    0.00772802266   -2.00000000000
    12.66148058373    6.32889565859    0.00772802266   -2.00000000000
    12.66148058373   -6.32889565859    0.00772802266   -2.00000000000
     6.32889565859  -12.66148058373    0.00772802266   -2.00000000000
    -6.32889565859  -12.66148058373    0.00772802266   -2.00000000000
   -12.66148058373   -6.32889565859    0.00772802266   -2.00000000000
   -10.55123381977    8.44098705582   -4.26789528527   -2.00000000000
    -8.44098705582   10.55123381977   -4.26789528527   -2.00000000000
     8.44098705582   10.55123381977   -4.26789528527   -2.00000000000
    10.55123381977    8.44098705582   -4.26789528527   -2.00000000000
    10.55123381977   -8.44098705582   -4.26789528527   -2.00000000000
     8.44098705582  -10.55123381977   -4.26789528527   -2.00000000000
    -8.44098705582  -10.55123381977   -4.26789528527   -2.00000000000
   -10.55123381977   -8.44098705582   -4.26789528527   -2.00000000000
   -12.66148058373    0.00000000000   -6.37814204923   -2.00000000000
     0.00000000000   12.66148058373   -6.37814204923   -2.00000000000
    12.66148058373    0.00000000000   -6.37814204923   -2.00000000000
     0.00000000000  -12.66148058373   -6.37814204923   -2.00000000000
   -12.66148058373    6.33125293065   -2.14445912302    2.00000000000
    -6.33125293065   12.66148058373   -2.14445912302    2.00000000000
     6.33125293065   12.66148058373   -2.14445912302    2.00000000000
    12.66148058373    6.33125293065   -2.14445912302    2.00000000000
    12.66148058373   -6.33125293065   -2.14445912302    2.00000000000
     6.33125293065  -12.66148058373   -2.14445912302    2.00000000000
    -6.33125293065  -12.66148058373   -2.14445912302    2.00000000000
   -12.66148058373   -6.33125293065   -2.14445912302    2.00000000000
   -12.66148058373    2.11024676395   -6.37814204923    2.00000000000
    -2.11024676395   12.66148058373   -6.37814204923    2.00000000000
     2.11024676395   12.66148058373   -6.37814204923    2.00000000000
    12.66148058373    2.11024676395   -6.37814204923    2.00000000000
    12.66148058373   -2.11024676395   -6.37814204923    2.00000000000
     2.11024676395  -12.66148058373   -6.37814204923    2.00000000000
    -2.11024676395  -12.66148058373   -6.37814204923    2.00000000000
   -12.66148058373   -2.11024676395   -6.37814204923    2.00000000000
   -14.76178985505    0.00000000000    0.00567209089   -2.00000000000
     0.00000000000   14.76178985505    0.00567209089   -2.00000000000
    14.76178985505    0.00000000000    0.00567209089   -2.00000000000
     0.00000000000  -14.76178985505    0.00567209089   -2.00000000000
   -12.66148058373    6.33074029186   -4.26789528527   -2.00000000000
    -6.33074029186   12.66148058373   -4.26789528527   -2.00000000000
     6.33074029186   12.66148058373   -4.26789528527   -2.00000000000
    12.66148058373    6.33074029186   -4.26789528527   -2.00000000000
    12.66148058373   -6.33074029186   -4.26789528527   -2.00000000000
     6.33074029186  -12.66148058373   -4.26789528527   -2.00000000000
    -6.33074029186  -12.66148058373   -4.26789528527   -2.00000000000
   -12.66148058373   -6.33074029186   -4.26789528527   -2.00000000000
   -12.66148058373    4.22049352791   -6.37814204923   -2.00000000000
    -4.22049352791   12.66148058373   -6.37814204923   -2.00000000000
     4.22049352791   12.66148058373   -6.37814204923   -2.00000000000
    12.66148058373    4.22049352791   -6.37814204923   -2.00000000000
    12.66148058373   -4.22049352791   -6.37814204923   -2.00000000000
     4.22049352791  -12.66148058373   -6.37814204923   -2.00000000000
    -4.22049352791  -12.66148058373   -6.37814204923   -2.00000000000
   -12.66148058373   -4.22049352791   -6.37814204923   -2.00000000000
   -14.77053148910    2.11144262254   -0.04367284424    2.00000000000
    -2.11144262254   14.77053148910   -0.04367284424    2.00000000000
     2.11144262254   14.77053148910   -0.04367284424    2.00000000000
    14.77053148910    2.11144262254   -0.04367284424    2.00000000000
    14.77053148910   -2.11144262254   -0.04367284424    2.00000000000
     2.11144262254  -14.77053148910   -0.04367284424    2.00000000000
    -2.11144262254  -14.77053148910   -0.04367284424    2.00000000000
   -14.77053148910   -2.11144262254   -0.04367284424    2.00000000000
   -10.55242967836   10.55242967836   -0.04367284424    2.00000000000
    10.55242967836   10.55242967836   -0.04367284424    2.00000000000
    10.55242967836  -10.55242967836   -0.04367284424    2.00000000000
   -10.55242967836  -10.55242967836   -0.04367284424    2.00000000000
   -14.77492124009    0.00000000000   -2.14155206950    2.00000000000
     0.00000000000   14.77492124009   -2.14155206950    2.00000000000
    14.77492124009    0.00000000000   -2.14155206950    2.00000000000
     0.00000000000  -14.77492124009   -2.14155206950    2.00000000000
   -10.55123381977    8.44098705582   -6.37814204923    2.00000000000
    -8.44098705582   10.55123381977   -6.37814204923    2.00000000000
     8.44098705582   10.55123381977   -6.37814204923    2.00000000000
    10.55123381977    8.44098705582   -6.37814204923    2.00000000000
    10.55123381977   -8.44098705582   -6.37814204923    2.00000000000
     8.44098705582  -10.55123381977   -6.37814204923    2.00000000000
    -8.44098705582  -10.55123381977   -6.37814204923    2.00000000000
   -10.55123381977   -8.44098705582   -6.37814204923    2.00000000000
   -14.77126959714    2.11070451449   -2.14923989662   -2.00000000000
    -2.11070451449   14.77126959714   -2.14923989662   -2.00000000000
     2.11070451449   14.77126959714   -2.14923989662   -2.00000000000
    14.77126959714    2.11070451449   -2.14923989662   -2.00000000000
    14.77126959714   -2.11070451449   -2.14923989662   -2.00000000000
     2.11070451449  -14.77126959714   -2.14923989662   -2.00000000000
    -2.11070451449  -14.77126959714   -2.14923989662   -2.00000000000
   -14.77126959714   -2.11070451449   -2.14923989662   -2.00000000000
   -10.55169157031   10.55169157031   -2.14923989662   -2.00000000000
    10.55169157031   10.55169157031   -2.14923989662   -2.00000000000
    10.55169157031  -10.55169157031   -2.14923989662   -2.00000000000
   -10.55169157031  -10.55169157031   -2.14923989662   -2.00000000000
   -12.66148058373    8.44098705582   -0.04269731856    2.00000000000
    -8.44098705582   12.66148058373   -0.04269731856    2.00000000000
     8.44098705582   12.66148058373   -0.04269731856    2.00000000000
    12.66148058373    8.44098705582   -0.04269731856    2.00000000000
    12.66148058373   -8.44098705582   -0.04269731856    2.00000000000
     8.44098705582  -12.66148058373   -0.04269731856    2.00000000000
    -8.44098705582  -12.66148058373   -0.04269731856    2.00000000000
   -12.66148058373   -8.44098705582   -0.04269731856    2.00000000000
   -14.76988271440    4.22049352791    0.00772802266   -2.00000000000
    -4.22049352791   14.76988271440    0.00772802266   -2.00000000000
     4.22049352791   14.76988271440    0.00772802266   -2.00000000000
    14.76988271440    4.22049352791    0.00772802266   -2.00000000000
    14.76988271440   -4.22049352791    0.00772802266   -2.00000000000
     4.22049352791  -14.76988271440    0.00772802266   -2.00000000000
    -4.22049352791  -14.76988271440    0.00772802266   -2.00000000000
   -14.76988271440   -4.22049352791    0.00772802266   -2.00000000000
   -12.66148058373    8.44098705582   -2.15129719490   -2.00000000000
    -8.44098705582   12.66148058373   -2.15129719490   -2.00000000000
     8.44098705582   12.66148058373   -2.15129719490   -2.00000000000
    12.66148058373    8.44098705582   -2.15129719490   -2.00000000000
    12.66148058373   -8.44098705582   -2.15129719490   -2.00000000000
     8.44098705582  -12.66148058373   -2.15129719490   -2.00000000000
    -8.44098705582  -12.66148058373   -2.15129719490   -2.00000000000
   -12.66148058373   -8.44098705582   -2.15129719490   -2.00000000000
   -14.77172734768    0.00000000000   -4.26789528527   -2.00000000000
     0.00000000000   14.77172734768   -4.26789528527   -2.00000000000
    14.77172734768    0.00000000000   -4.26789528527   -2.00000000000
     0.00000000000  -14.77172734768   -4.26789528527   -2.00000000000
   -14.77223998647    4.22049352791   -2.14445912302    2.00000000000
    -4.22049352791   14.77223998647   -2.14445912302    2.00000000000
     4.22049352791   14.77223998647   -2.14445912302    2.00000000000
    14.77223998647    4.22049352791   -2.14445912302    2.00000000000
    14.77223998647   -4.22049352791   -2.14445912302    2.00000000000
     4.22049352791  -14.77223998647   -2.14445912302    2.00000000000
    -4.22049352791  -14.77223998647   -2.14445912302    2.00000000000
   -14.77223998647   -4.22049352791   -2.14445912302    2.00000000000
   -14.77172734768    2.11024676395   -4.26789528527    2.00000000000
   -10.55123381977   10.55123381977   -4.26789528527    2.00000000000
    -2.11024676395   14.77172734768   -4.26789528527    2.00000000000
     2.11024676395   14.77172734768   -4.26789528527    2.00000000000
    10.55123381977   10.55123381977   -4.26789528527    2.00000000000
    14.77172734768    2.11024676395   -4.26789528527    2.00000000000
    14.77172734768   -2.11024676395   -4.26789528527    2.00000000000
    10.55123381977  -10.55123381977   -4.26789528527    2.00000000000
     2.11024676395  -14.77172734768   -4.26789528527    2.00000000000
    -2.11024676395  -14.77172734768   -4.26789528527    2.00000000000
   -10.55123381977  -10.55123381977   -4.26789528527    2.00000000000
   -14.77172734768   -2.11024676395   -4.26789528527    2.00000000000
   -12.66148058373    6.33074029186   -6.37814204923    2.00000000000
    -6.33074029186   12.66148058373   -6.37814204923    2.00000000000
     6.33074029186   12.66148058373   -6.37814204923    2.00000000000
    12.66148058373    6.33074029186   -6.37814204923    2.00000000000
    12.66148058373   -6.33074029186   -6.37814204923    2.00000000000
     6.33074029186  -12.66148058373   -6.37814204923    2.00000000000
    -6.33074029186  -12.66148058373   -6.37814204923    2.00000000000
   -12.66148058373   -6.33074029186   -6.37814204923    2.00000000000
   -12.66148058373    8.44098705582   -4.26789528527    2.00000000000
    -8.44098705582   12.66148058373   -4.26789528527    2.00000000000
     8.44098705582   12.66148058373   -4.26789528527    2.00000000000
    12.66148058373    8.44098705582   -4.26789528527    2.00000000000
    12.66148058373   -8.44098705582   -4.26789528527    2.00000000000
     8.44098705582  -12.66148058373   -4.26789528527    2.00000000000
    -8.44098705582  -12.66148058373   -4.26789528527    2.00000000000
   -12.66148058373   -8.44098705582   -4.26789528527    2.00000000000
   -14.77172734768    4.22049352791   -4.26789528527   -2.00000000000
    -4.22049352791   14.77172734768   -4.26789528527   -2.00000000000
     4.22049352791   14.77172734768   -4.26789528527   -2.00000000000
    14.77172734768    4.22049352791   -4.26789528527   -2.00000000000
    14.77172734768   -4.22049352791   -4.26789528527   -2.00000000000
     4.22049352791  -14.77172734768   -4.26789528527   -2.00000000000
    -4.22049352791  -14.77172734768   -4.26789528527   -2.00000000000
   -14.77172734768   -4.22049352791   -4.26789528527   -2.00000000000
   -14.77053148910    6.32954443328   -0.04367284424    2.00000000000
    -6.32954443328   14.77053148910   -0.04367284424    2.00000000000
     6.32954443328   14.77053148910   -0.04367284424    2.00000000000
    14.77053148910    6.32954443328   -0.04367284424    2.00000000000
    14.77053148910   -6.32954443328   -0.04367284424    2.00000000000
     6.32954443328  -14.77053148910   -0.04367284424    2.00000000000
    -6.32954443328  -14.77053148910   -0.04367284424    2.00000000000
   -14.77053148910   -6.32954443328   -0.04367284424    2.00000000000
   -14.77172734768    0.00000000000   -6.37814204923    2.00000000000
     0.00000000000   14.77172734768   -6.37814204923    2.00000000000
    14.77172734768    0.00000000000   -6.37814204923    2.00000000000
     0.00000000000  -14.77172734768   -6.37814204923    2.00000000000
   -14.77126959714    6.33028254133   -2.14923989662   -2.00000000000
    -6.33028254133   14.77126959714   -2.14923989662   -2.00000000000
     6.33028254133   14.77126959714   -2.14923989662   -2.00000000000
    14.77126959714    6.33028254133   -2.14923989662   -2.00000000000
    14.77126959714   -6.33028254133   -2.14923989662   -2.00000000000
     6.33028254133  -14.77126959714   -2.14923989662   -2.00000000000
    -6.33028254133  -14.77126959714   -2.14923989662   -2.00000000000
   -14.77126959714   -6.33028254133   -2.14923989662   -2.00000000000
   -14.77172734768    2.11024676395   -6.37814204923   -2.00000000000
   -10.55123381977   10.55123381977   -6.37814204923   -2.00000000000
    -2.11024676395   14.77172734768   -6.37814204923   -2.00000000000
     2.11024676395   14.77172734768   -6.37814204923   -2.00000000000
    10.55123381977   10.55123381977   -6.37814204923   -2.00000000000
    14.77172734768    2.11024676395   -6.37814204923   -2.00000000000
    14.77172734768   -2.11024676395   -6.37814204923   -2.00000000000
    10.55123381977  -10.55123381977   -6.37814204923   -2.00000000000
     2.11024676395  -14.77172734768   -6.37814204923   -2.00000000000
    -2.11024676395  -14.77172734768   -6.37814204923   -2.00000000000
   -10.55123381977  -10.55123381977   -6.37814204923   -2.00000000000
   -14.77172734768   -2.11024676395   -6.37814204923   -2.00000000000
   -12.66148058373   10.55307845305    0.00772802266   -2.00000000000
   -10.55307845305   12.66148058373    0.00772802266   -2.00000000000
    10.55307845305   12.66148058373    0.00772802266   -2.00000000000
    12.66148058373   10.55307845305    0.00772802266   -2.00000000000
    12.66148058373  -10.55307845305    0.00772802266   -2.00000000000
    10.55307845305  -12.66148058373    0.00772802266   -2.00000000000
   -10.55307845305  -12.66148058373    0.00772802266   -2.00000000000
   -12.66148058373  -10.55307845305    0.00772802266   -2.00000000000
   -12.66148058373    8.44098705582   -6.37814204923   -2.00000000000
    -8.44098705582   12.66148058373   -6.37814204923   -2.00000000000
     8.44098705582   12.66148058373   -6.37814204923   -2.00000000000
    12.66148058373    8.44098705582   -6.37814204923   -2.00000000000
    12.66148058373   -8.44098705582   -6.37814204923   -2.00000000000
     8.44098705582  -12.66148058373   -6.37814204923   -2.00000000000
    -8.44098705582  -12.66148058373   -6.37814204923   -2.00000000000
   -12.66148058373   -8.44098705582   -6.37814204923   -2.00000000000
   -12.66148058373   10.55072118099   -2.14445912302    2.00000000000
   -10.55072118099   12.66148058373   -2.14445912302    2.00000000000
    10.55072118099   12.66148058373   -2.14445912302    2.00000000000
    12.66148058373   10.55072118099   -2.14445912302    2.00000000000
    12.66148058373  -10.55072118099   -2.14445912302    2.00000000000
    10.55072118099  -12.66148058373   -2.14445912302    2.00000000000
   -10.55072118099  -12.66148058373   -2.14445912302    2.00000000000
   -12.66148058373  -10.55072118099   -2.14445912302    2.00000000000
   -14.77172734768    6.33074029186   -4.26789528527    2.00000000000
    -6.33074029186   14.77172734768   -4.26789528527    2.00000000000
     6.33074029186   14.77172734768   -4.26789528527    2.00000000000
    14.77172734768    6.33074029186   -4.26789528527    2.00000000000
    14.77172734768   -6.33074029186   -4.26789528527    2.00000000000
     6.33074029186  -14.77172734768   -4.26789528527    2.00000000000
    -6.33074029186  -14.77172734768   -4.26789528527    2.00000000000
   -14.77172734768   -6.33074029186   -4.26789528527    2.00000000000
   -14.77172734768    4.22049352791   -6.37814204923    2.00000000000
    -4.22049352791   14.77172734768   -6.37814204923    2.00000000000
     4.22049352791   14.77172734768   -6.37814204923    2.00000000000
    14.77172734768    4.22049352791   -6.37814204923    2.00000000000
    14.77172734768   -4.22049352791   -6.37814204923    2.00000000000
     4.22049352791  -14.77172734768   -6.37814204923    2.00000000000
    -4.22049352791  -14.77172734768   -6.37814204923    2.00000000000
   -14.77172734768   -4.22049352791   -6.37814204923    2.00000000000
   -16.88197411163    0.00000000000    0.00000000000    2.00000000000
     0.00000000000   16.88197411163    0.00000000000    2.00000000000
    16.88197411163    0.00000000000    0.00000000000    2.00000000000
     0.00000000000  -16.88197411163    0.00000000000    2.00000000000
   -14.76178985505    8.44098705582    0.00567209089   -2.00000000000
    -8.44098705582   14.76178985505    0.00567209089   -2.00000000000
     8.44098705582   14.76178985505    0.00567209089   -2.00000000000
    14.76178985505    8.44098705582    0.00567209089   -2.00000000000
    14.76178985505   -8.44098705582    0.00567209089   -2.00000000000
     8.44098705582  -14.76178985505    0.00567209089   -2.00000000000
    -8.44098705582  -14.76178985505    0.00567209089   -2.00000000000
   -14.76178985505   -8.44098705582    0.00567209089   -2.00000000000
   -16.88197411163    2.12018425659    0.00567209089   -2.00000000000
    -2.12018425659   16.88197411163    0.00567209089   -2.00000000000
     2.12018425659   16.88197411163    0.00567209089   -2.00000000000
    16.88197411163    2.12018425659    0.00567209089   -2.00000000000
    16.88197411163   -2.12018425659    0.00567209089   -2.00000000000
     2.12018425659  -16.88197411163    0.00567209089   -2.00000000000
    -2.12018425659  -16.88197411163    0.00567209089   -2.00000000000
   -16.88197411163   -2.12018425659    0.00567209089   -2.00000000000
   -16.88197411163    0.00000000000   -2.14129966123   -2.00000000000
     0.00000000000   16.88197411163   -2.14129966123   -2.00000000000
    16.88197411163    0.00000000000   -2.14129966123   -2.00000000000
     0.00000000000  -16.88197411163   -2.14129966123   -2.00000000000
   -12.66148058373   10.55123381977   -4.26789528527   -2.00000000000
   -10.55123381977   12.66148058373   -4.26789528527   -2.00000000000
    10.55123381977   12.66148058373   -4.26789528527   -2.00000000000
    12.66148058373   10.55123381977   -4.26789528527   -2.00000000000
    12.66148058373  -10.55123381977   -4.26789528527   -2.00000000000
    10.55123381977  -12.66148058373   -4.26789528527   -2.00000000000
   -10.55123381977  -12.66148058373   -4.26789528527   -2.00000000000
   -12.66148058373  -10.55123381977   -4.26789528527   -2.00000000000
   -16.88197411163    2.10705287155   -2.14155206950    2.00000000000
    -2.10705287155   16.88197411163   -2.14155206950    2.00000000000
     2.10705287155   16.88197411163   -2.14155206950    2.00000000000
    16.88197411163    2.10705287155   -2.14155206950    2.00000000000
    16.88197411163   -2.10705287155   -2.14155206950    2.00000000000
     2.10705287155  -16.88197411163   -2.14155206950    2.00000000000
    -2.10705287155  -16.88197411163   -2.14155206950    2.00000000000
   -16.88197411163   -2.10705287155   -2.14155206950    2.00000000000
   -14.77492124009    8.44098705582   -2.14155206950    2.00000000000
    -8.44098705582   14.77492124009   -2.14155206950    2.00000000000
     8.44098705582   14.77492124009   -2.14155206950    2.00000000000
    14.77492124009    8.44098705582   -2.14155206950    2.00000000000
    14.77492124009   -8.44098705582   -2.14155206950    2.00000000000
     8.44098705582  -14.77492124009   -2.14155206950    2.00000000000
    -8.44098705582  -14.77492124009   -2.14155206950    2.00000000000
   -14.77492124009   -8.44098705582   -2.14155206950    2.00000000000
   -14.77172734768    6.33074029186   -6.37814204923   -2.00000000000
    -6.33074029186   14.77172734768   -6.37814204923   -2.00000000000
     6.33074029186   14.77172734768   -6.37814204923   -2.00000000000
    14.77172734768    6.33074029186   -6.37814204923   -2.00000000000
    14.77172734768   -6.33074029186   -6.37814204923   -2.00000000000
     6.33074029186  -14.77172734768   -6.37814204923   -2.00000000000
    -6.33074029186  -14.77172734768   -6.37814204923   -2.00000000000
   -14.77172734768   -6.33074029186   -6.37814204923   -2.00000000000
   -16.88197411163    4.22049352791   -0.04269731856    2.00000000000
    -4.22049352791   16.88197411163   -0.04269731856    2.00000000000
     4.22049352791   16.88197411163   -0.04269731856    2.00000000000
    16.88197411163    4.22049352791   -0.04269731856    2.00000000000
    16.88197411163   -4.22049352791   -0.04269731856    2.00000000000
     4.22049352791  -16.88197411163   -0.04269731856    2.00000000000
    -4.22049352791  -16.88197411163   -0.04269731856    2.00000000000
   -16.88197411163   -4.22049352791   -0.04269731856    2.00000000000
   -16.88197411163    0.00000000000   -4.26789528527    2.00000000000
     0.00000000000   16.88197411163   -4.26789528527    2.00000000000
    16.88197411163    0.00000000000   -4.26789528527    2.00000000000
     0.00000000000  -16.88197411163   -4.26789528527    2.00000000000
   -16.88197411163    4.22049352791   -2.15129719490   -2.00000000000
    -4.22049352791   16.88197411163   -2.15129719490   -2.00000000000
     4.22049352791   16.88197411163   -2.15129719490   -2.00000000000
    16.88197411163    4.22049352791   -2.15129719490   -2.00000000000
    16.88197411163   -4.22049352791   -2.15129719490   -2.00000000000
     4.22049352791  -16.88197411163   -2.15129719490   -2.00000000000
    -4.22049352791  -16.88197411163   -2.15129719490   -2.00000000000
   -16.88197411163   -4.22049352791   -2.15129719490   -2.00000000000
   -16.88197411163    2.11024676395   -4.26789528527   -2.00000000000
   -14.77172734768    8.44098705582   -4.26789528527   -2.00000000000
    -8.44098705582   14.77172734768   -4.26789528527   -2.00000000000
    -2.11024676395   16.88197411163   -4.26789528527   -2.00000000000
     2.11024676395   16.88197411163   -4.26789528527   -2.00000000000
     8.44098705582   14.77172734768   -4.26789528527   -2.00000000000
    14.77172734768    8.44098705582   -4.26789528527   -2.00000000000
    16.88197411163    2.11024676395   -4.26789528527   -2.00000000000
    16.88197411163   -2.11024676395   -4.26789528527   -2.00000000000
    14.77172734768   -8.44098705582   -4.26789528527   -2.00000000000
     8.44098705582  -14.77172734768   -4.26789528527   -2.00000000000
     2.11024676395  -16.88197411163   -4.26789528527   -2.00000000000
    -2.11024676395  -16.88197411163   -4.26789528527   -2.00000000000
    -8.44098705582  -14.77172734768   -4.26789528527   -2.00000000000
   -14.77172734768   -8.44098705582   -4.26789528527   -2.00000000000
   -16.88197411163   -2.11024676395   -4.26789528527   -2.00000000000
   -12.66148058373   10.55123381977   -6.37814204923    2.00000000000
   -10.55123381977   12.66148058373   -6.37814204923    2.00000000000
    10.55123381977   12.66148058373   -6.37814204923    2.00000000000
    12.66148058373   10.55123381977   -6.37814204923    2.00000000000
    12.66148058373  -10.55123381977   -6.37814204923    2.00000000000
    10.55123381977  -12.66148058373   -6.37814204923    2.00000000000
   -10.55123381977  -12.66148058373   -6.37814204923    2.00000000000
   -12.66148058373  -10.55123381977   -6.37814204923    2.00000000000
   -12.66148058373   12.66148058373   -0.03992370948    2.00000000000
    12.66148058373   12.66148058373   -0.03992370948    2.00000000000
    12.66148058373  -12.66148058373   -0.03992370948    2.00000000000
   -12.66148058373  -12.66148058373   -0.03992370948    2.00000000000
   -16.88197411163    4.22049352791   -4.26789528527    2.00000000000
    -4.22049352791   16.88197411163   -4.26789528527    2.00000000000
     4.22049352791   16.88197411163   -4.26789528527    2.00000000000
    16.88197411163    4.22049352791   -4.26789528527    2.00000000000
    16.88197411163   -4.22049352791   -4.26789528527    2.00000000000
     4.22049352791  -16.88197411163   -4.26789528527    2.00000000000
    -4.22049352791  -16.88197411163   -4.26789528527    2.00000000000
   -16.88197411163   -4.22049352791   -4.26789528527    2.00000000000
   -16.88197411163    6.32080279923    0.00567209089   -2.00000000000
    -6.32080279923   16.88197411163    0.00567209089   -2.00000000000
     6.32080279923   16.88197411163    0.00567209089   -2.00000000000
    16.88197411163    6.32080279923    0.00567209089   -2.00000000000
    16.88197411163   -6.32080279923    0.00567209089   -2.00000000000
     6.32080279923  -16.88197411163    0.00567209089   -2.00000000000
    -6.32080279923  -16.88197411163    0.00567209089   -2.00000000000
   -16.88197411163   -6.32080279923    0.00567209089   -2.00000000000
   -12.66148058373   12.66148058373   -2.15028985266   -2.00000000000
    12.66148058373   12.66148058373   -2.15028985266   -2.00000000000
    12.66148058373  -12.66148058373   -2.15028985266   -2.00000000000
   -12.66148058373  -12.66148058373   -2.15028985266   -2.00000000000
   -16.88197411163    0.00000000000   -6.37814204923   -2.00000000000
     0.00000000000   16.88197411163   -6.37814204923   -2.00000000000
    16.88197411163    0.00000000000   -6.37814204923   -2.00000000000
     0.00000000000  -16.88197411163   -6.37814204923   -2.00000000000
   -14.77053148910   10.55242967836   -0.04367284424    2.00000000000
   -10.55242967836   14.77053148910   -0.04367284424    2.00000000000
    10.55242967836   14.77053148910   -0.04367284424    2.00000000000
    14.77053148910   10.55242967836   -0.04367284424    2.00000000000
[...]
 CPU time [min]:  1399.725                   Wall time [min]:   199.843


 Direct DF-CCSD(T) calculation

 Convergence criterion:  1.0E-05

 Number of occupied/virtual/auxiliary orbitals:    29    90   297
    251.63 MB is the minimal memory requirement for (T)
    191.76 MB is the minimal memory requirement for CCSD

 MP2 correlation energy [au]:       -0.982346574859

 LMP2 domain correlation energy contribution [au]:       -0.058108167634

 CPU time [min]:  1399.774                   Wall time [min]:   199.851


 Starting CCSD iterations...

                     Residual norm       Correlation Energy
 Iteration  1        0.208152730770       -0.972259942056
 Iteration  2        0.065364605188       -0.994008880832
 Iteration  3        0.023725274135       -0.998950451236
 Iteration  4        0.005152301927       -0.999013185090
 Iteration  5        0.001675555406       -0.998982495010
 Iteration  6        0.000457857209       -0.999000746753
 Iteration  7        0.000178845406       -0.998994236226
 Iteration  8        0.000054574277       -0.998990694672

 CCSD iteration has converged in  8 steps.
      424.16 MB memory was utilized by CCSD

 T1 diagnostic:      1.244E-02            D1 diagnostic:      4.141E-02

 T1 contribution [au]:                         0.000000000000
 CCSD correlation energy [au]:                -0.058180958153

 CPU time [min]:  1401.694                   Wall time [min]:   200.106

 Calculation of (T) correction...

 Laplace threshold, nquadmin:  1.00E-03   4
 Number of quadrature points:    4

      428.28 MB memory is utilized for (T)

 0%       25%       50%       75%       100%
 |---------|---------|---------|---------|

 (T) correction [au]:                   -0.001758745287
 CCSD(T) correlation energy [au]:       -0.059939703440

 CPU time [min]:  1403.580                   Wall time [min]:   200.345

 MO:   101
 Number of atoms in domain:      36
 Number of atomic orbitals:     783
 Number of atoms for local DF:   34
 Number of fitting functions:  2484  (94.52%)
 Number of occupied orbitals:    50
 Number of virtual  orbitals:   605
 Number of Cholesky vectors:      6
 MP2 energy in ED [au]:          -0.058203764987
 Number of occupied LNOs:        29  (58.00%)
 Number of virtual  LNOs:        90  (14.88%)
 Number of Cholesky vectors:      5
 MP2 energy in LIS [au]:         -0.058084791533
 Correction for frozen LNO [au]: -0.000118973453     (0.204%)
 Number of NAFs:                297  (11.96%)
 CPU time [min]:  1408.530                   Wall time [min]:   201.138


 Direct DF-CCSD(T) calculation

 Convergence criterion:  1.0E-05

 Number of occupied/virtual/auxiliary orbitals:    29    90   297
    251.63 MB is the minimal memory requirement for (T)
    191.76 MB is the minimal memory requirement for CCSD

 MP2 correlation energy [au]:       -0.982568661116

 LMP2 domain correlation energy contribution [au]:       -0.058108837235

 CPU time [min]:  1408.579                   Wall time [min]:   201.145


 Starting CCSD iterations...

                     Residual norm       Correlation Energy
 Iteration  1        0.208792672175       -0.972743120110
 Iteration  2        0.065595668135       -0.994609107999
 Iteration  3        0.023825341517       -0.999584389606
 Iteration  4        0.005145018291       -0.999639731437
 Iteration  5        0.001688068821       -0.999609949696
 Iteration  6        0.000461616243       -0.999629604622
 Iteration  7        0.000179799555       -0.999623463866
 Iteration  8        0.000055626933       -0.999619827716

 CCSD iteration has converged in  8 steps.
      424.16 MB memory was utilized by CCSD

 T1 diagnostic:      1.244E-02            D1 diagnostic:      4.141E-02

 T1 contribution [au]:                         0.000000000000
 CCSD correlation energy [au]:                -0.058181549588

 CPU time [min]:  1410.492                   Wall time [min]:   201.399

 Calculation of (T) correction...

 Laplace threshold, nquadmin:  1.00E-03   4
 Number of quadrature points:    4

      428.28 MB memory is utilized for (T)

 0%       25%       50%       75%       100%
 |---------|---------|---------|---------|

 (T) correction [au]:                   -0.001758741318
 CCSD(T) correlation energy [au]:       -0.059940290906

 CPU time [min]:  1412.377                   Wall time [min]:   201.639

 MO:   102
 Number of atoms in domain:      36
 Number of atomic orbitals:     783
 Number of atoms for local DF:   32
 Number of fitting functions:  2340  (89.04%)
 Number of occupied orbitals:    64
 Number of virtual  orbitals:   593
 Number of Cholesky vectors:      6
 MP2 energy in ED [au]:          -0.055919851559
 Number of occupied LNOs:        32  (50.00%)
 Number of virtual  LNOs:        95  (16.02%)
 Number of Cholesky vectors:      5
 MP2 energy in LIS [au]:         -0.055758911643
 Correction for frozen LNO [au]: -0.000160939915     (0.288%)
 Number of NAFs:                321  (13.72%)
 CPU time [min]:  1417.382                   Wall time [min]:   202.418


 Direct DF-CCSD(T) calculation

 Convergence criterion:  1.0E-05

 Number of occupied/virtual/auxiliary orbitals:    32    95   321
    303.42 MB is the minimal memory requirement for (T)
    230.11 MB is the minimal memory requirement for CCSD

 MP2 correlation energy [au]:       -1.059908861559

 LMP2 domain correlation energy contribution [au]:       -0.055787303427

 CPU time [min]:  1417.444                   Wall time [min]:   202.431


 Starting CCSD iterations...

                     Residual norm       Correlation Energy
 Iteration  1        0.207154635167       -1.061773841835
 Iteration  2        0.059109947858       -1.083761425249
 Iteration  3        0.020553791054       -1.087730543806
 Iteration  4        0.003925529865       -1.087840282246
 Iteration  5        0.001131880901       -1.087830666550
 Iteration  6        0.000271844929       -1.087834844101
 Iteration  7        0.000086629668       -1.087831759343

 CCSD iteration has converged in  7 steps.
      519.51 MB memory was utilized by CCSD

 T1 diagnostic:      1.164E-02            D1 diagnostic:      3.754E-02

 T1 contribution [au]:                         0.000000000000
 CCSD correlation energy [au]:                -0.056266428627

 CPU time [min]:  1419.954                   Wall time [min]:   202.785

 Calculation of (T) correction...

 Laplace threshold, nquadmin:  1.00E-03   4
 Number of quadrature points:    4

      539.27 MB memory is utilized for (T)

 0%       25%       50%       75%       100%
 |---------|---------|---------|---------|

 (T) correction [au]:                   -0.001443514908
 CCSD(T) correlation energy [au]:       -0.057709943536

 CPU time [min]:  1422.762                   Wall time [min]:   203.141

 MO:   103
 Number of atoms in domain:      36
 Number of atomic orbitals:     783
 Number of atoms for local DF:   27
 Number of fitting functions:  1976  (75.19%)
 Number of occupied orbitals:    45
 Number of virtual  orbitals:   530
 Number of Cholesky vectors:      6
 MP2 energy in ED [au]:          -0.057875508725
 Number of occupied LNOs:        27  (60.00%)
 Number of virtual  LNOs:        84  (15.85%)
 Number of Cholesky vectors:      5
 MP2 energy in LIS [au]:         -0.057771835406
 Correction for frozen LNO [au]: -0.000103673319     (0.179%)
 Number of NAFs:                274  (13.87%)
 CPU time [min]:  1425.671                   Wall time [min]:   203.613


 Direct DF-CCSD(T) calculation

 Convergence criterion:  1.0E-05

 Number of occupied/virtual/auxiliary orbitals:    27    84   274
    209.80 MB is the minimal memory requirement for (T)
    162.72 MB is the minimal memory requirement for CCSD

 MP2 correlation energy [au]:       -0.836806189164

 LMP2 domain correlation energy contribution [au]:       -0.057793294615

 CPU time [min]:  1425.713                   Wall time [min]:   203.619


 Starting CCSD iterations...

                     Residual norm       Correlation Energy
 Iteration  1        0.192286936593       -0.839315836652
 Iteration  2        0.056780783250       -0.858290354362
 Iteration  3        0.020618370580       -0.861834521266
 Iteration  4        0.005053833653       -0.862030300383
 Iteration  5        0.001583284117       -0.861997662656
 Iteration  6        0.000502697593       -0.861996964332
 Iteration  7        0.000191310678       -0.861990561617
 Iteration  8        0.000063512532       -0.861989039117

 CCSD iteration has converged in  8 steps.
      337.72 MB memory was utilized by CCSD

 T1 diagnostic:      1.284E-02            D1 diagnostic:      4.082E-02

 T1 contribution [au]:                         0.000000000000
 CCSD correlation energy [au]:                -0.057764979604

 CPU time [min]:  1427.058                   Wall time [min]:   203.790

 Calculation of (T) correction...

 Laplace threshold, nquadmin:  1.00E-03   4
 Number of quadrature points:    4

      341.55 MB memory is utilized for (T)

 0%       25%       50%       75%       100%
 |---------|---------|---------|---------|

 (T) correction [au]:                   -0.001686875860
 CCSD(T) correlation energy [au]:       -0.059451855464

 CPU time [min]:  1428.303                   Wall time [min]:   203.949

 MO:   104
 Number of atoms in domain:      36
 Number of atomic orbitals:     783
 Number of atoms for local DF:   34
 Number of fitting functions:  2484  (94.52%)
 Number of occupied orbitals:    48
 Number of virtual  orbitals:   605
 Number of Cholesky vectors:      6
 MP2 energy in ED [au]:          -0.058200178203
 Number of occupied LNOs:        29  (60.42%)
 Number of virtual  LNOs:        90  (14.88%)
 Number of Cholesky vectors:      5
 MP2 energy in LIS [au]:         -0.058084036781
 Correction for frozen LNO [au]: -0.000116141422     (0.200%)
 Number of NAFs:                297  (11.96%)
 CPU time [min]:  1433.176                   Wall time [min]:   204.731


 Direct DF-CCSD(T) calculation

 Convergence criterion:  1.0E-05

 Number of occupied/virtual/auxiliary orbitals:    29    90   297
    251.63 MB is the minimal memory requirement for (T)
    191.76 MB is the minimal memory requirement for CCSD

 MP2 correlation energy [au]:       -0.982368850219

 LMP2 domain correlation energy contribution [au]:       -0.058108113814

 CPU time [min]:  1433.226                   Wall time [min]:   204.738


 Starting CCSD iterations...

                     Residual norm       Correlation Energy
 Iteration  1        0.208150035496       -0.972280128732
 Iteration  2        0.065363795358       -0.994028419360
 Iteration  3        0.023725106638       -0.998970020809
 Iteration  4        0.005152231581       -0.999032749624
 Iteration  5        0.001675457824       -0.999002070040
 Iteration  6        0.000457833962       -0.999020322904
 Iteration  7        0.000178835414       -0.999013811694
 Iteration  8        0.000054569612       -0.999010270087

 CCSD iteration has converged in  8 steps.
      424.16 MB memory was utilized by CCSD

 T1 diagnostic:      1.244E-02            D1 diagnostic:      4.141E-02

 T1 contribution [au]:                         0.000000000000
 CCSD correlation energy [au]:                -0.058180885992

 CPU time [min]:  1435.134                   Wall time [min]:   204.991

 Calculation of (T) correction...

 Laplace threshold, nquadmin:  1.00E-03   4
 Number of quadrature points:    4

      428.28 MB memory is utilized for (T)

 0%       25%       50%       75%       100%
 |---------|---------|---------|---------|

 (T) correction [au]:                   -0.001758724894
 CCSD(T) correlation energy [au]:       -0.059939610886

 CPU time [min]:  1437.031                   Wall time [min]:   205.233

 MO:   105
 Number of atoms in domain:      33
 Number of atomic orbitals:     714
 Number of atoms for local DF:   14
 Number of fitting functions:  1024  (42.45%)
 Number of occupied orbitals:    27
 Number of virtual  orbitals:   284
 Number of Cholesky vectors:      6
 MP2 energy in ED [au]:          -0.056098691713
 Number of occupied LNOs:        17  (62.96%)
 Number of virtual  LNOs:        58  (20.42%)
 Number of Cholesky vectors:      5
 MP2 energy in LIS [au]:         -0.056030726477
 Correction for frozen LNO [au]: -0.000067965236     (0.121%)
 Number of NAFs:                180  (17.58%)
 CPU time [min]:  1437.689                   Wall time [min]:   205.343


 Direct DF-CCSD(T) calculation

 Convergence criterion:  1.0E-05

 Number of occupied/virtual/auxiliary orbitals:    17    58   180
     95.32 MB is the minimal memory requirement for (T)
     83.52 MB is the minimal memory requirement for CCSD

 MP2 correlation energy [au]:       -0.616331461130

 LMP2 domain correlation energy contribution [au]:       -0.056059410308

 CPU time [min]:  1437.702                   Wall time [min]:   205.344


 Starting CCSD iterations...

                     Residual norm       Correlation Energy
 Iteration  1        0.162501797683       -0.612154037714
 Iteration  2        0.049772036478       -0.624991581410
 Iteration  3        0.018036779442       -0.627805575106
 Iteration  4        0.003909070104       -0.627893169397
 Iteration  5        0.001205999672       -0.627875819386
 Iteration  6        0.000330603514       -0.627880324134
 Iteration  7        0.000121117502       -0.627876703625
 Iteration  8        0.000035463215       -0.627875792757

 CCSD iteration has converged in  8 steps.
      121.65 MB memory was utilized by CCSD

 T1 diagnostic:      1.265E-02            D1 diagnostic:      3.774E-02

 T1 contribution [au]:                         0.000000000000
 CCSD correlation energy [au]:                -0.056357540802

 CPU time [min]:  1437.899                   Wall time [min]:   205.369

 Calculation of (T) correction...

 Laplace threshold, nquadmin:  1.00E-03   4
 Number of quadrature points:    4

      118.71 MB memory is utilized for (T)

 0%       25%       50%       75%       100%
 |---------|---------|---------|---------|

 (T) correction [au]:                   -0.001415791567
 CCSD(T) correlation energy [au]:       -0.057773332369

 CPU time [min]:  1438.066                   Wall time [min]:   205.391

 **********************************************************************
 Dimensions of the extended domains:    Minimum / Average / Maximum

 Number of atoms in domain:                  33      35.4        36
 Number of atomic orbitals:                 714     769.0       783
 Number of fitting functions:              1024    2110.5      2628
 Number of occupied localized MOs:           21      51.8        88
 Number of PAOs:                            284     531.6       606
 Number of occupied LNOs:                     9      29.6        48
 Number of virtual  LNOs:                    40      90.4       139
 Number of NAFs:                            113     301.8       485

 **********************************************************************
 Distant (and weak) pair contributions, corrections

 Sum of pair energies [au]:                    -0.002043810810    (0.034%)
 Sum of energy corrections [au]:               -0.013151084078    (0.218%)
 Pair energies + LNO corrections [au]:         -0.015194894888
 Sum of LMP2 contributions [au]:               -6.046174799189

 **********************************************************************
  Time of manipulations in the EDs:      max CPU/Wall [s]  all CPU/Wall [min]

 PD construction & multipole pair E     300.81    38.12     5.01     0.64
 Construct MO basis of the ED             3.14     0.50     3.86     0.51
 (mu,nu|P) evaluation & trf 2 (ai|P)    151.81    19.03   136.04    17.06
 Evaluate MP2 energy of the ED           45.84     5.75    35.58     4.46
 Transformations to the LNO basis        13.82     1.87    11.61     1.46
 Build W_PQ (Jai or Jpi part)             2.11     0.27     1.55     0.20
 Evaluate MP2 energy of the LIS           1.43     0.18     0.73     0.09
 (mu,nu|P) evaluation & trf 2 J(abQ)    293.30    48.35   236.85    43.38
 Total of the above for all EDs         511.45    75.94   426.23    67.15

 **********************************************************************
 Maximum memory requirement [MB]:

 PD construction & multipole pair E         82.1
 AO integral evaluation in the EDs          61.5
 (mu,nu|P) evaluation & trf 2 (aI|P)      2917.9
 Evaluate MP2 energy in the EDs           2848.6
 Transformation to the LNO basis           903.2
 (mu,nu|P) to Jab transformation           672.9
 Evaluate MP2 energy in the LIS            944.3
 Minimum requirement for LIS CCSD          737.7
 Actually allocated  for LIS CCSD         2112.0
 Minimum requirement for LIS (T)          1009.8
 Actually allocated  for LIS (T)          2192.1

 ======================================================================
 ======================================================================



 ======================================================================
 ======================================================================

 Final local CC results:

 Minimum number of correlated electrons:        18       (  8.6%)
 Maximum number of correlated electrons:        96       ( 45.7%)
 Average number of correlated electrons:        59.3     ( 28.2%)
 Minimum number of correlated orbitals:         49       (  6.9%)
 Maximum number of correlated orbitals:        187       ( 26.3%)
 Average number of correlated orbitals:        120.0     ( 16.9%)

 CPU time for integral calculations [min]:                  2.869
 Wall time for integral calculations [min]:                 1.722

 CPU time for SCF calculation [min]:                       71.477
 Wall time for SCF calculation [min]:                       9.049

 CPU time for orbital localization [min]:                   0.183
 Wall time for orbital localization [min]:                  0.134

 CPU time for integral transformations [min]:             442.205
 Wall time for integral transformations [min]:             69.221

 Reference energy [au]:                                -13079.032890787219

 LMP2 correlation energy [au]:                             -6.046174799189
 Total LMP2 energy [au]:                               -13085.079065586408

 Total MP2 correction for dropped NAFs [au]:                0.002501535500
 Total MP2 correction [au]:                                -0.012693359389

 CPU time for CCSD calculations [min]:                    474.622
 Total CPU time for CCSD [min]:                           991.356
 Wall time for CCSD calculations [min]:                    69.381
 Total wall time for CCSD [min]:                          149.508

 CCSD correlation energy [au]:                             -6.058534534635
 Total CCSD energy [au]:                               -13085.091425321854
 CCSD correlation energy + 0.5 MP2 corrections [au]:       -6.064881214329
 Total LNO-CCSD energy with MP2 corrections [au]:      -13085.097772001549

 CPU time for (T) corrections [min]:                      521.250
 Total CPU time for CCSD(T) [min]:                       1512.605
 Wall time for (T) corrections [min]:                      66.790
 Total wall time for CCSD(T) [min]:                       216.298

 Total (T) correlation energy contribution [au]:           -0.177302154288
 Total (T) correlation energy+0.5 MP2 correction [au]:     -0.183648833982
 CCSD(T) correlation energy [au]:                          -6.235836688923
 Total CCSD(T) energy [au]:                            -13085.268727476141
 CCSD(T) correlation energy + MP2 corrections [au]:        -6.248530048312
 Total LNO-CCSD(T) energy with MP2 corrections [au]:   -13085.281420835530

 ======================================================================
 ======================================================================

 ************************ 2024-11-25 19:49:16 *************************
                      Normal termination of mrcc.
 **********************************************************************
