 vasp.6.3.0 20Jan22 (build Mar 11 2022 13:48:16) complex

 executed on             LinuxIFC date 2023.12.26  16:46:54
 running on  304 total cores
 distrk:  each k-point on  304 cores,    1 groups
 distr:  one band on NCORE=   2 cores,  152 groups


--------------------------------------------------------------------------------------------------------


 INCAR:
   SYSTEM = MgO-rocksalt
   ISMEAR = 0
   SIGMA = 0.05
   EDIFF = 1E-6
   ALGO = ALL
   ISTART = 0
   IBRION = -1
   NSW = 0
   ISYM = 2
   ISIF = 2
   EDIFFG = -0.01
   DIPOL = 0.5 0.5 0.5
   IDIPOL = 3
   LDIPOL = .TRUE.
   GGA = MK
   LUSE_VDW = .TRUE.
   PARAM1 = 0.1234
   PARAM2 = 0.711357
   ZAB_VDW = -1.8867
   AGGAC = 0.0
   ENCUT = 600
   PREC = Accurate
   LASPH = .TRUE.
   LREAL = .FALSE.
   ISPIN = 1
   NELM = 200
   NELMIN = 8
   NCORE = 2
   KPAR = 1
   LWAVE = .FALSE.
   LCHARG = .FALSE.

 POTCAR:    PAW_PBE Mg_pv 13Apr2007
 POTCAR:    PAW_PBE O 08Apr2002
 -----------------------------------------------------------------------------
|                                                                             |
|           W    W    AA    RRRRR   N    N  II  N    N   GGGG   !!!           |
|           W    W   A  A   R    R  NN   N  II  NN   N  G    G  !!!           |
|           W    W  A    A  R    R  N N  N  II  N N  N  G       !!!           |
|           W WW W  AAAAAA  RRRRR   N  N N  II  N  N N  G  GGG   !            |
|           WW  WW  A    A  R   R   N   NN  II  N   NN  G    G                |
|           W    W  A    A  R    R  N    N  II  N    N   GGGG   !!!           |
|                                                                             |
|     For optimal performance we recommend to set                             |
|       NCORE = 2 up to number-of-cores-per-socket                            |
|     NCORE specifies how many cores store one orbital (NPAR=cpu/NCORE).      |
|     This setting can greatly improve the performance of VASP for DFT.       |
|     The default, NCORE=1 might be grossly inefficient on modern             |
|     multi-core architectures or massively parallel machines. Do your        |
|     own testing! More info at https://www.vasp.at/wiki/index.php/NCORE      |
|     Unfortunately you need to use the default for GW and RPA                |
|     calculations (for HF NCORE is supported but not extensively tested      |
|     yet).                                                                   |
|                                                                             |
 -----------------------------------------------------------------------------

 -----------------------------------------------------------------------------
|                                                                             |
|               ----> ADVICE to this user running VASP <----                  |
|                                                                             |
|     You have switched on vdW-DFT.                                           |
|     This routine was written and supplied by Jiri Klimes. We recommend      |
|     that you carefully read and cite the following publications:            |
|       J. Klimes, D.R. Bowler, A. Michelides                                 |
|          J. Phys.: Cond Matt. 22 022201 (2010)                              |
|       J. Klimes, D.R. Bowler, A. Michelides                                 |
|          Phys. Rev. B. 83, 195131 (2011)                                    |
|     and references therein.                                                 |
|                                                                             |
 -----------------------------------------------------------------------------

 POTCAR:    PAW_PBE Mg_pv 13Apr2007
   SHA256 =  f474ac0dd33840b9ae76c01d57fea79fdf77cdfbb07d5ade72c65f83c709b62b Mg_pv/POTCAR
   COPYR  = (c) Copyright 13Apr2007 Georg Kresse
   COPYR  = This file is part of the software VASP. Any use, copying, and all other rights are regul
   COPYR  = If you do not have a valid VASP license, you may not use, copy or distribute this file.
   VRHFIN =Mg: p6s2
   LEXCH  = PE
   EATOM  =  1056.7344 eV,   77.6678 Ry

   TITEL  = PAW_PBE Mg_pv 13Apr2007
   LULTRA =        F    use ultrasoft PP ?
   IUNSCR =        1    unscreen: 0-lin 1-nonlin 2-no
   RPACOR =    1.500    partial core radius
   POMASS =   24.305; ZVAL   =    8.000    mass and valenz
   RCORE  =    2.000    outmost cutoff radius
   RWIGS  =    2.000; RWIGS  =    1.058    wigner-seitz radius (au A)
   ENMAX  =  403.929; ENMIN  =  302.947 eV
   RCLOC  =    1.506    cutoff for local pot
   LCOR   =        T    correct aug charges
   LPAW   =        T    paw PP
   EAUG   =  758.780
   DEXC   =    0.000
   RMAX   =    2.045    core radius for proj-oper
   RAUG   =    1.300    factor for augmentation sphere
   RDEP   =    2.025    radius for radial grids
   RDEPT  =    1.557    core radius for aug-charge

   Atomic configuration
    5 entries
     n  l   j            E        occ.
     1  0  0.50     -1259.6230   2.0000
     2  0  0.50       -79.8442   2.0000
     2  1  1.50       -46.6121   6.0000
     3  0  0.50        -4.7055   2.0000
     3  2  1.50        -1.3606   0.0000
   Description
     l       E           TYP  RCUT    TYP  RCUT
     1    -46.6121073     23  1.600
     1      2.7211652     23  1.600
     0     -4.7054661     23  2.000
     0     61.2262170     23  2.000
     2     -1.3605826     23  2.000
  local pseudopotential read in
  partial core-charges read in
  partial kinetic energy density read in
  atomic valenz-charges read in
  non local Contribution for L=           1  read in
    real space projection operators read in
  non local Contribution for L=           1  read in
    real space projection operators read in
  non local Contribution for L=           0  read in
    real space projection operators read in
  non local Contribution for L=           0  read in
    real space projection operators read in
  non local Contribution for L=           2  read in
    real space projection operators read in
    PAW grid and wavefunctions read in

   number of l-projection  operators is LMAX  =           5
   number of lm-projection operators is LMMAX =          13

 POTCAR:    PAW_PBE O 08Apr2002
   SHA256 =  818f92134a0a090dccd8ba1447fa70422a3b330e708bb4f08108d8ae51209ddf O/POTCAR
   COPYR  = (c) Copyright 08Apr2002 Georg Kresse
   COPYR  = This file is part of the software VASP. Any use, copying, and all other rights are regul
   COPYR  = If you do not have a valid VASP license, you may not use, copy or distribute this file.
   VRHFIN =O: s2p4
   LEXCH  = PE
   EATOM  =   432.3788 eV,   31.7789 Ry

   TITEL  = PAW_PBE O 08Apr2002
   LULTRA =        F    use ultrasoft PP ?
   IUNSCR =        1    unscreen: 0-lin 1-nonlin 2-no
   RPACOR =    1.200    partial core radius
   POMASS =   16.000; ZVAL   =    6.000    mass and valenz
   RCORE  =    1.520    outmost cutoff radius
   RWIGS  =    1.550; RWIGS  =    0.820    wigner-seitz radius (au A)
   ENMAX  =  400.000; ENMIN  =  300.000 eV
   ICORE  =        2    local potential
   LCOR   =        T    correct aug charges
   LPAW   =        T    paw PP
   EAUG   =  605.392
   DEXC   =    0.000
   RMAX   =    1.553    core radius for proj-oper
   RAUG   =    1.300    factor for augmentation sphere
   RDEP   =    1.550    radius for radial grids
   RDEPT  =    1.329    core radius for aug-charge

   Atomic configuration
    4 entries
     n  l   j            E        occ.
     1  0  0.50      -514.6923   2.0000
     2  0  0.50       -23.9615   2.0000
     2  1  0.50        -9.0305   4.0000
     3  2  1.50        -9.5241   0.0000
   Description
     l       E           TYP  RCUT    TYP  RCUT
     0    -23.9615318     23  1.200
     0     -9.5240782     23  1.200
     1     -9.0304911     23  1.520
     1      8.1634956     23  1.520
     2     -9.5240782      7  1.500
  local pseudopotential read in
  partial core-charges read in
  partial kinetic energy density read in
  kinetic energy density of atom read in
  atomic valenz-charges read in
  non local Contribution for L=           0  read in
    real space projection operators read in
  non local Contribution for L=           0  read in
    real space projection operators read in
  non local Contribution for L=           1  read in
    real space projection operators read in
  non local Contribution for L=           1  read in
    real space projection operators read in
    PAW grid and wavefunctions read in

   number of l-projection  operators is LMAX  =           4
   number of lm-projection operators is LMMAX =           8

 -----------------------------------------------------------------------------
|                                                                             |
|               ----> ADVICE to this user running VASP <----                  |
|                                                                             |
|     You have a (more or less) 'large supercell' and for larger cells it     |
|     might be more efficient to use real-space projection operators.         |
|     Therefore, try LREAL= Auto in the INCAR file.                           |
|     Mind: For very accurate calculation, you might also keep the            |
|     reciprocal projection scheme (i.e. LREAL=.FALSE.).                      |
|                                                                             |
 -----------------------------------------------------------------------------

 -----------------------------------------------------------------------------
|                                                                             |
|               ----> ADVICE to this user running VASP <----                  |
|                                                                             |
|     You enforced a specific xc type in the INCAR file but a different       |
|     type was found in the POTCAR file.                                      |
|     I HOPE YOU KNOW WHAT YOU ARE DOING!                                     |
|                                                                             |
 -----------------------------------------------------------------------------

  PAW_PBE Mg_pv 13Apr2007               :
 energy of atom  1       EATOM=-1056.7344
 kinetic energy error for atom=    0.0221 (will be added to EATOM!!)
  PAW_PBE O 08Apr2002                   :
 energy of atom  2       EATOM= -432.3788
 kinetic energy error for atom=    0.0168 (will be added to EATOM!!)


 POSCAR: Mg  O
  positions in direct lattice
  velocities in cartesian coordinates
 exchange correlation table for  LEXCH =       43
   RHO(1)=    0.500       N(1)  =     2000
   RHO(2)=  100.500       N(2)  =     4000



--------------------------------------------------------------------------------------------------------


 ion  position               nearest neighbor table
   1  0.250  0.000  0.352-  33 2.11  35 2.11  36 2.11  43 2.11  52 2.11
   2  0.500  0.250  0.352-  34 2.11  35 2.11  36 2.11  44 2.11  51 2.11
   3  0.250  0.250  0.451-  35 2.11  34 2.11  33 2.11  41 2.11  50 2.11  39 2.12
   4  0.500  0.000  0.451-  36 2.11  34 2.11  33 2.11  42 2.11  49 2.11  40 2.12
   5  0.250  0.000  0.550-  39 2.11  40 2.11  47 2.11  56 2.11  33 2.12  37 2.14
   6  0.500  0.250  0.550-  39 2.11  40 2.11  48 2.11  55 2.11  34 2.12  38 2.14
   7  0.250  0.250  0.648-  39 2.10  38 2.11  37 2.11  45 2.11  54 2.11
   8  0.500  0.000  0.648-  40 2.10  38 2.11  37 2.11  46 2.11  53 2.11
   9  0.250  0.500  0.352-  41 2.11  35 2.11  43 2.11  44 2.11  60 2.11
  10  0.500  0.750  0.352-  42 2.11  36 2.11  43 2.11  44 2.11  59 2.11
  11  0.250  0.750  0.451-  43 2.11  41 2.11  42 2.11  33 2.11  58 2.11  47 2.12
  12  0.500  0.500  0.451-  44 2.11  41 2.11  42 2.11  34 2.11  57 2.11  48 2.12
  13  0.250  0.500  0.550-  39 2.11  47 2.11  48 2.11  64 2.11  41 2.12  45 2.14
  14  0.500  0.750  0.550-  40 2.11  47 2.11  48 2.11  63 2.11  42 2.12  46 2.14
  15  0.250  0.750  0.648-  47 2.10  45 2.11  46 2.11  37 2.11  62 2.11
  16  0.500  0.500  0.648-  48 2.10  45 2.11  46 2.11  38 2.11  61 2.11
  17  0.750  0.000  0.352-  49 2.11  36 2.11  51 2.11  52 2.11  59 2.11
  18  0.000  0.250  0.352-  50 2.11  35 2.11  51 2.11  52 2.11  60 2.11
  19  0.750  0.250  0.451-  51 2.11  49 2.11  50 2.11  34 2.11  57 2.11  55 2.12
  20  0.000  0.000  0.451-  52 2.11  49 2.11  50 2.11  33 2.11  58 2.11  56 2.12
  21  0.750  0.000  0.550-  40 2.11  55 2.11  56 2.11  63 2.11  49 2.12  53 2.14
  22  0.000  0.250  0.550-  39 2.11  55 2.11  56 2.11  64 2.11  50 2.12  54 2.14
  23  0.750  0.250  0.648-  55 2.10  53 2.11  54 2.11  38 2.11  61 2.11
  24  0.000  0.000  0.648-  56 2.10  53 2.11  54 2.11  37 2.11  62 2.11
  25  0.750  0.500  0.352-  57 2.11  51 2.11  44 2.11  59 2.11  60 2.11
  26  0.000  0.750  0.352-  58 2.11  52 2.11  43 2.11  59 2.11  60 2.11
  27  0.750  0.750  0.451-  59 2.11  49 2.11  57 2.11  58 2.11  42 2.11  63 2.12
  28  0.000  0.500  0.451-  60 2.11  50 2.11  57 2.11  58 2.11  41 2.11  64 2.12
  29  0.750  0.500  0.550-  48 2.11  55 2.11  63 2.11  64 2.11  57 2.12  61 2.14
  30  0.000  0.750  0.550-  47 2.11  56 2.11  63 2.11  64 2.11  58 2.12  62 2.14
  31  0.750  0.750  0.648-  63 2.10  53 2.11  61 2.11  62 2.11  46 2.11
  32  0.000  0.500  0.648-  64 2.10  54 2.11  61 2.11  62 2.11  45 2.11
  33  0.250  0.000  0.451-   1 2.11   3 2.11   4 2.11  11 2.11  20 2.11   5 2.12
  34  0.500  0.250  0.451-   2 2.11   3 2.11   4 2.11  12 2.11  19 2.11   6 2.12
  35  0.250  0.250  0.352-   3 2.11   2 2.11   1 2.11   9 2.11  18 2.11
  36  0.500  0.000  0.352-   4 2.11   2 2.11   1 2.11  10 2.11  17 2.11
  37  0.250  0.000  0.650-   7 2.11   8 2.11  15 2.11  24 2.11   5 2.14
  38  0.500  0.250  0.650-   7 2.11   8 2.11  16 2.11  23 2.11   6 2.14
  39  0.250  0.250  0.550-   7 2.10   6 2.11   5 2.11  13 2.11  22 2.11   3 2.12
  40  0.500  0.000  0.550-   8 2.10   6 2.11   5 2.11  14 2.11  21 2.11   4 2.12
  41  0.250  0.500  0.451-   9 2.11   3 2.11  11 2.11  12 2.11  28 2.11  13 2.12
  42  0.500  0.750  0.451-  10 2.11   4 2.11  11 2.11  12 2.11  27 2.11  14 2.12
  43  0.250  0.750  0.352-  11 2.11   9 2.11  10 2.11   1 2.11  26 2.11
  44  0.500  0.500  0.352-  12 2.11   9 2.11  10 2.11   2 2.11  25 2.11
  45  0.250  0.500  0.650-   7 2.11  15 2.11  16 2.11  32 2.11  13 2.14
  46  0.500  0.750  0.650-   8 2.11  15 2.11  16 2.11  31 2.11  14 2.14
  47  0.250  0.750  0.550-  15 2.10  13 2.11  14 2.11   5 2.11  30 2.11  11 2.12
  48  0.500  0.500  0.550-  16 2.10  13 2.11  14 2.11   6 2.11  29 2.11  12 2.12
  49  0.750  0.000  0.451-  17 2.11   4 2.11  19 2.11  20 2.11  27 2.11  21 2.12
  50  0.000  0.250  0.451-  18 2.11   3 2.11  19 2.11  20 2.11  28 2.11  22 2.12
  51  0.750  0.250  0.352-  19 2.11  17 2.11  18 2.11   2 2.11  25 2.11
  52  0.000  0.000  0.352-  20 2.11  17 2.11  18 2.11   1 2.11  26 2.11
  53  0.750  0.000  0.650-   8 2.11  23 2.11  24 2.11  31 2.11  21 2.14
  54  0.000  0.250  0.650-   7 2.11  23 2.11  24 2.11  32 2.11  22 2.14
  55  0.750  0.250  0.550-  23 2.10  21 2.11  22 2.11   6 2.11  29 2.11  19 2.12
  56  0.000  0.000  0.550-  24 2.10  21 2.11  22 2.11   5 2.11  30 2.11  20 2.12
  57  0.750  0.500  0.451-  25 2.11  19 2.11  12 2.11  27 2.11  28 2.11  29 2.12
  58  0.000  0.750  0.451-  26 2.11  20 2.11  11 2.11  27 2.11  28 2.11  30 2.12
  59  0.750  0.750  0.352-  27 2.11  17 2.11  25 2.11  26 2.11  10 2.11
  60  0.000  0.500  0.352-  28 2.11  18 2.11  25 2.11  26 2.11   9 2.11
  61  0.750  0.500  0.650-  16 2.11  23 2.11  31 2.11  32 2.11  29 2.14
  62  0.000  0.750  0.650-  15 2.11  24 2.11  31 2.11  32 2.11  30 2.14
  63  0.750  0.750  0.550-  31 2.10  21 2.11  29 2.11  30 2.11  14 2.11  27 2.12
  64  0.000  0.500  0.550-  32 2.10  22 2.11  29 2.11  30 2.11  13 2.11  28 2.12

  LATTYP: Found a simple tetragonal cell.
 ALAT       =     8.4405822621
 C/A-ratio  =     2.5271285836

  Lattice vectors:

 A1 = (   8.4405822621,   0.0000000000,   0.0000000000)
 A2 = (   0.0000000000,   8.4405822621,   0.0000000000)
 A3 = (   0.0000000000,   0.0000000000,  21.3304366966)


Analysis of symmetry for initial positions (statically):
=====================================================================
 Subroutine PRICEL returns following result:

  LATTYP: Found a simple tetragonal cell.
 ALAT       =     2.9841964773
 C/A-ratio  =     7.1477990335

  Lattice vectors:

 A1 = (   2.1101455655,  -2.1101455655,   0.0000000000)
 A2 = (   2.1101455655,   2.1101455655,   0.0000000000)
 A3 = (   0.0000000000,   0.0000000000,  21.3304366966)

   8 primitive cells build up your supercell.


 Routine SETGRP: Setting up the symmetry group for a
 simple tetragonal supercell.


 Subroutine GETGRP returns: Found  8 space group operations
 (whereof  8 operations were pure point group operations)
 out of a pool of 16 trial point group operations.


The static configuration has the point symmetry C_4v.


Analysis of symmetry for dynamics (positions and initial velocities):
=====================================================================
 Subroutine PRICEL returns following result:

  LATTYP: Found a simple tetragonal cell.
 ALAT       =     2.9841964773
 C/A-ratio  =     7.1477990335

  Lattice vectors:

 A1 = (   2.1101455655,  -2.1101455655,   0.0000000000)
 A2 = (   2.1101455655,   2.1101455655,   0.0000000000)
 A3 = (   0.0000000000,   0.0000000000,  21.3304366966)

   8 primitive cells build up your supercell.


 Routine SETGRP: Setting up the symmetry group for a
 simple tetragonal supercell.


 Subroutine GETGRP returns: Found  8 space group operations
 (whereof  8 operations were pure point group operations)
 out of a pool of 16 trial point group operations.


The dynamic configuration has the point symmetry C_4v.


Analysis of constrained symmetry for selective dynamics:
=====================================================================
 Subroutine PRICEL returns following result:

  LATTYP: Found a simple tetragonal cell.
 ALAT       =     2.9841964773
 C/A-ratio  =     7.1477990335

  Lattice vectors:

 A1 = (   2.1101455655,  -2.1101455655,   0.0000000000)
 A2 = (   2.1101455655,   2.1101455655,   0.0000000000)
 A3 = (   0.0000000000,   0.0000000000,  21.3304366966)

   8 primitive cells build up your supercell.


 Routine SETGRP: Setting up the symmetry group for a
 simple tetragonal supercell.


 Subroutine GETGRP returns: Found  8 space group operations
 (whereof  8 operations were pure point group operations)
 out of a pool of 16 trial point group operations.


The constrained configuration has the point symmetry C_4v.


 Subroutine INISYM returns: Found  8 space group operations
 (whereof  8 operations are pure point group operations),
 and found     8 'primitive' translations


----------------------------------------------------------------------------------------

                                     Primitive cell

  volume of cell :     189.9567

  direct lattice vectors                    reciprocal lattice vectors
     2.110145566 -2.110145566  0.000000000     0.236950478 -0.236950478  0.000000000
     2.110145566  2.110145566  0.000000000     0.236950478  0.236950478  0.000000000
     0.000000000  0.000000000 21.330436697     0.000000000  0.000000000  0.046881366

  length of vectors
     2.984196477  2.984196477 21.330436697     0.335098579  0.335098579  0.046881366

  position of ions in fractional coordinates (direct lattice)
     0.500000000  0.500000000  0.351610242
     0.000000000  0.000000000  0.450536747
     0.500000000  0.500000000  0.549966382
     0.000000000  0.000000000  0.648348359
     0.500000000  0.500000000  0.450536747
     0.000000000  0.000000000  0.351610242
     0.500000000  0.500000000  0.650177506
     0.000000000  0.000000000  0.549707339

  ion indices of the primitive-cell ions
   primitive index   ion index
                 1           1
                 2           3
                 3           5
                 4           7
                 5          33
                 6          35
                 7          37
                 8          39

----------------------------------------------------------------------------------------



 KPOINTS: pymatgen v2020.8.13 with grid density =

Automatic generation of k-mesh.
 Grid dimensions read from file:
 generate k-points for:    2    2    1

 Generating k-lattice:

  Cartesian coordinates                     Fractional coordinates (reciprocal lattice)
     0.059237619  0.000000000  0.000000000     0.500000000  0.000000000  0.000000000
     0.000000000  0.059237619  0.000000000     0.000000000  0.500000000  0.000000000
     0.000000000  0.000000000  0.046881366     0.000000000  0.000000000  1.000000000

  Length of vectors
     0.059237619  0.059237619  0.046881366

  Shift w.r.t. Gamma in fractional coordinates (k-lattice)
     0.000000000  0.000000000  0.000000000


 Subroutine IBZKPT returns following result:
 ===========================================

 Found      3 irreducible k-points:

 Following reciprocal coordinates:
            Coordinates               Weight
  0.000000  0.000000  0.000000      1.000000
  0.500000  0.000000  0.000000      2.000000
  0.500000  0.500000  0.000000      1.000000

 Following cartesian coordinates:
            Coordinates               Weight
  0.000000  0.000000  0.000000      1.000000
  0.059238  0.000000  0.000000      2.000000
  0.059238  0.059238  0.000000      1.000000



--------------------------------------------------------------------------------------------------------




 Dimension of arrays:
   k-points           NKPTS =      3   k-points in BZ     NKDIM =      3   number of bands    NBANDS=    304
   number of dos      NEDOS =    301   number of ions     NIONS =     64
   non local maximal  LDIM  =      5   non local SUM 2l+1 LMDIM =     13
   total plane-waves  NPLWV = 882000
   max r-space proj   IRMAX =      1   max aug-charges    IRDMAX=  11637
   dimension x,y,z NGX =    70 NGY =   70 NGZ =  180
   dimension x,y,z NGXF=   140 NGYF=  140 NGZF=  360
   support grid    NGXF=   140 NGYF=  140 NGZF=  360
   ions per type =              32  32
   NGX,Y,Z   is equivalent  to a cutoff of  13.79, 13.79, 14.03 a.u.
   NGXF,Y,Z  is equivalent  to a cutoff of  27.57, 27.57, 28.06 a.u.

 SYSTEM =  MgO-rocksalt
 POSCAR =  Mg  O

 Startparameter for this run:
   NWRITE =      2    write-flag & timer
   PREC   = accura    normal or accurate (medium, high low for compatibility)
   ISTART =      0    job   : 0-new  1-cont  2-samecut
   ICHARG =      2    charge: 1-file 2-atom 10-const
   ISPIN  =      1    spin polarized calculation?
   LNONCOLLINEAR =      F non collinear calculations
   LSORBIT =      F    spin-orbit coupling
   INIWAV =      1    electr: 0-lowe 1-rand  2-diag
   LASPH  =      T    aspherical Exc in radial PAW
 Electronic Relaxation 1
   ENCUT  =  600.0 eV  44.10 Ry    6.64 a.u.  16.86 16.86 42.60*2*pi/ulx,y,z
   ENINI  =  600.0     initial cutoff
   ENAUG  =  758.8 eV  augmentation charge cutoff
   NELM   =    200;   NELMIN=  8; NELMDL= -5     # of ELM steps
   EDIFF  = 0.1E-05   stopping-criterion for ELM
   LREAL  =      F    real-space projection
   NLSPLINE    = F    spline interpolate recip. space projectors
   LCOMPAT=      F    compatible to vasp.4.4
   GGA_COMPAT  = T    GGA compatible to vasp.4.4-vasp.4.6
   LMAXPAW     = -100 max onsite density
   LMAXMIX     =    2 max onsite mixed and CHGCAR
   VOSKOWN=      0    Vosko Wilk Nusair interpolation
   ROPT   =    0.00000   0.00000
 Ionic relaxation
   EDIFFG = -.1E-01   stopping-criterion for IOM
   NSW    =      0    number of steps for IOM
   NBLOCK =      1;   KBLOCK =      1    inner block; outer block
   IBRION =     -1    ionic relax: 0-MD 1-quasi-New 2-CG
   NFREE  =      0    steps in history (QN), initial steepest desc. (CG)
   ISIF   =      2    stress and relaxation
   IWAVPR =     10    prediction:  0-non 1-charg 2-wave 3-comb
   ISYM   =      2    0-nonsym 1-usesym 2-fastsym
   LCORR  =      T    Harris-Foulkes like correction to forces

   POTIM  = 0.5000    time-step for ionic-motion
   TEIN   =    0.0    initial temperature
   TEBEG  =    0.0;   TEEND  =   0.0 temperature during run
   SMASS  =  -3.00    Nose mass-parameter (am)
   estimated Nose-frequenzy (Omega)   =  0.10E-29 period in steps = 0.13E+47 mass=  -0.163E-26a.u.
   SCALEE = 1.0000    scale energy and forces
   NPACO  =    256;   APACO  = 10.0  distance and # of slots for P.C.
   PSTRESS=    0.0 pullay stress

  Mass of Ions in am
   POMASS =  24.30 16.00
  Ionic Valenz
   ZVAL   =   8.00  6.00
  Atomic Wigner-Seitz radii
   RWIGS  =  -1.00 -1.00
  virtual crystal weights
   VCA    =   1.00  1.00
   NELECT =     448.0000    total number of electrons
   NUPDOWN=      -1.0000    fix difference up-down

 DOS related values:
   EMIN   =  10.00;   EMAX   =-10.00  energy-range for DOS
   EFERMI =   0.00
   ISMEAR =     0;   SIGMA  =   0.05  broadening in eV -4-tet -1-fermi 0-gaus

 Electronic relaxation 2 (details)
   IALGO  =     58    algorithm
   LDIAG  =      T    sub-space diagonalisation (order eigenvalues)
   LSUBROT=      F    optimize rotation matrix (better conditioning)
   TURBO    =      0    0=normal 1=particle mesh
   IRESTART =      0    0=no restart 2=restart with 2 vectors
   NREBOOT  =      0    no. of reboots
   NMIN     =      0    reboot dimension
   EREF     =   0.00    reference energy to select bands
   IMIX   =      4    mixing-type and parameters
     AMIX     =   0.40;   BMIX     =  1.00
     AMIX_MAG =   1.60;   BMIX_MAG =  1.00
     AMIN     =   0.10
     WC   =   100.;   INIMIX=   1;  MIXPRE=   1;  MAXMIX= -45

 Intra band minimization:
   WEIMIN = 0.0000     energy-eigenvalue tresh-hold
   EBREAK =  0.82E-09  absolut break condition
   DEPER  =   0.30     relativ break condition

   TIME   =   0.40     timestep for ELM

  volume/ion in A,a.u.               =      23.74       160.24
  Fermi-wavevector in a.u.,A,eV,Ry     =   1.089564  2.058977 16.152145  1.187149
  Thomas-Fermi vector in A             =   2.225770

 Write flags
   LWAVE        =      F    write WAVECAR
   LDOWNSAMPLE  =      F    k-point downsampling of WAVECAR
   LCHARG       =      F    write CHGCAR
   LVTOT        =      F    write LOCPOT, total local potential
   LVHAR        =      F    write LOCPOT, Hartree potential only
   LELF         =      F    write electronic localiz. function (ELF)
   LORBIT       =      0    0 simple, 1 ext, 2 COOP (PROOUT), +10 PAW based schemes


 Dipole corrections
   LMONO  =      F    monopole corrections only (constant potential shift)
   LDIPOL =      T    correct potential (dipole corrections)
   IDIPOL =      3    1-x, 2-y, 3-z, 4-all directions
   EPSILON=  1.0000000 bulk dielectric constant

 Exchange correlation treatment:
   GGA     =    MK    GGA type
   LEXCH   =    43    internal setting for exchange type
   LIBXC   =     F    Libxc
   VOSKOWN =     0    Vosko Wilk Nusair interpolation
   LHFCALC =     F    Hartree Fock is set to
   LHFONE  =     F    Hartree Fock one center treatment
   AEXX    =    0.0000 exact exchange contribution

 vdW DFT:
   LUSE_VDW   =     T    switch on vdW DFT
   Zab_VDW    =******    correlation parameter
   PARAM1     =0.1234
   PARAM2     =0.7114
   PARAM3     =0.0000
   -- rVV10 --
   BPARAM     = 6.3000
   CPARAM     = 0.0093

 Linear response parameters
   LEPSILON=     F    determine dielectric tensor
   LRPA    =     F    only Hartree local field effects (RPA)
   LNABLA  =     F    use nabla operator in PAW spheres
   LVEL    =     F    velocity operator in full k-point grid
   CSHIFT  =0.1000    complex shift for real part using Kramers Kronig
   OMEGAMAX=  -1.0    maximum frequency
   DEG_THRESHOLD= 0.2000000E-02 threshold for treating states as degnerate
   RTIME   =   -0.100 relaxation time in fs
  (WPLASMAI=    0.000 imaginary part of plasma frequency in eV, 0.658/RTIME)
   DFIELD  = 0.0000000 0.0000000 0.0000000 field for delta impulse in time

  Optional k-point grid parameters
   LKPOINTS_OPT  =     F    use optional k-point grid
   KPOINTS_OPT_MODE=     1    mode for optional k-point grid

 Orbital magnetization related:
   ORBITALMAG=     F  switch on orbital magnetization
   LCHIMAG   =     F  perturbation theory with respect to B field
   DQ        =  0.001000  dq finite difference perturbation B field
   LLRAUG    =     F  two centre corrections for induced B field



--------------------------------------------------------------------------------------------------------


 Static calculation
 charge density and potential will be updated during run
 non-spin polarized calculation
 Conjugate gradient for all bands (Freysoldt, et al. PRB 79, 241103 (2009))
 preconditioned conjugated gradient
 perform sub-space diagonalisation
    before iterative eigenvector-optimisation
 modified Broyden-mixing scheme, WC =      100.0
 initial mixing is a Kerker type mixing with AMIX =  0.4000 and BMIX =      1.0000
 Hartree-type preconditioning will be used
 using additional bands           80
 reciprocal scheme for non local part
 use partial core corrections
 no Harris-corrections to forces
 use gradient corrections
 use of overlap-Matrix (Vanderbilt PP)
 Gauss-broadening in eV      SIGMA  =   0.05


--------------------------------------------------------------------------------------------------------


  energy-cutoff  :      600.00
  volume of cell :     1519.65
      direct lattice vectors                 reciprocal lattice vectors
     8.440582262  0.000000000  0.000000000     0.118475239  0.000000000  0.000000000
     0.000000000  8.440582262  0.000000000     0.000000000  0.118475239  0.000000000
     0.000000000  0.000000000 21.330436697     0.000000000  0.000000000  0.046881366

  length of vectors
     8.440582262  8.440582262 21.330436697     0.118475239  0.118475239  0.046881366



 k-points in units of 2pi/SCALE and weight: pymatgen v2020.8.13 with grid density =
   0.00000000  0.00000000  0.00000000       0.250
   0.05923762  0.00000000  0.00000000       0.500
   0.05923762  0.05923762  0.00000000       0.250

 k-points in reciprocal lattice and weights: pymatgen v2020.8.13 with grid density =
   0.00000000  0.00000000  0.00000000       0.250
   0.50000000  0.00000000  0.00000000       0.500
   0.50000000  0.50000000  0.00000000       0.250

 position of ions in fractional coordinates (direct lattice)
   0.25000000  0.00000000  0.35161024
   0.50000000  0.25000000  0.35161024
   0.25000000  0.25000000  0.45053675
   0.50000000  0.00000000  0.45053675
   0.25000000  0.00000000  0.54996638
   0.50000000  0.25000000  0.54996638
   0.25000000  0.25000000  0.64834836
   0.50000000  0.00000000  0.64834836
   0.25000000  0.50000000  0.35161024
   0.50000000  0.75000000  0.35161024
   0.25000000  0.75000000  0.45053675
   0.50000000  0.50000000  0.45053675
   0.25000000  0.50000000  0.54996638
   0.50000000  0.75000000  0.54996638
   0.25000000  0.75000000  0.64834836
   0.50000000  0.50000000  0.64834836
   0.75000000  0.00000000  0.35161024
   0.00000000  0.25000000  0.35161024
   0.75000000  0.25000000  0.45053675
   0.00000000  0.00000000  0.45053675
   0.75000000  0.00000000  0.54996638
   0.00000000  0.25000000  0.54996638
   0.75000000  0.25000000  0.64834836
   0.00000000  0.00000000  0.64834836
   0.75000000  0.50000000  0.35161024
   0.00000000  0.75000000  0.35161024
   0.75000000  0.75000000  0.45053675
   0.00000000  0.50000000  0.45053675
   0.75000000  0.50000000  0.54996638
   0.00000000  0.75000000  0.54996638
   0.75000000  0.75000000  0.64834836
   0.00000000  0.50000000  0.64834836
   0.25000000  0.00000000  0.45053675
   0.50000000  0.25000000  0.45053675
   0.25000000  0.25000000  0.35161024
   0.50000000  0.00000000  0.35161024
   0.25000000  0.00000000  0.65017751
   0.50000000  0.25000000  0.65017751
   0.25000000  0.25000000  0.54970734
   0.50000000  0.00000000  0.54970734
   0.25000000  0.50000000  0.45053675
   0.50000000  0.75000000  0.45053675
   0.25000000  0.75000000  0.35161024
   0.50000000  0.50000000  0.35161024
   0.25000000  0.50000000  0.65017751
   0.50000000  0.75000000  0.65017751
   0.25000000  0.75000000  0.54970734
   0.50000000  0.50000000  0.54970734
   0.75000000  0.00000000  0.45053675
   0.00000000  0.25000000  0.45053675
   0.75000000  0.25000000  0.35161024
   0.00000000  0.00000000  0.35161024
   0.75000000  0.00000000  0.65017751
   0.00000000  0.25000000  0.65017751
   0.75000000  0.25000000  0.54970734
   0.00000000  0.00000000  0.54970734
   0.75000000  0.50000000  0.45053675
   0.00000000  0.75000000  0.45053675
   0.75000000  0.75000000  0.35161024
   0.00000000  0.50000000  0.35161024
   0.75000000  0.50000000  0.65017751
   0.00000000  0.75000000  0.65017751
   0.75000000  0.75000000  0.54970734
   0.00000000  0.50000000  0.54970734

 position of ions in cartesian coordinates  (Angst):
   2.11014557  0.00000000  7.50000000
   4.22029113  2.11014557  7.50000000
   2.11014557  2.11014557  9.61014557
   4.22029113  0.00000000  9.61014557
   2.11014557  0.00000000 11.73102311
   4.22029113  2.11014557 11.73102311
   2.11014557  2.11014557 13.82955363
   4.22029113  0.00000000 13.82955363
   2.11014557  4.22029113  7.50000000
   4.22029113  6.33043670  7.50000000
   2.11014557  6.33043670  9.61014557
   4.22029113  4.22029113  9.61014557
   2.11014557  4.22029113 11.73102311
   4.22029113  6.33043670 11.73102311
   2.11014557  6.33043670 13.82955363
   4.22029113  4.22029113 13.82955363
   6.33043670  0.00000000  7.50000000
   0.00000000  2.11014557  7.50000000
   6.33043670  2.11014557  9.61014557
   0.00000000  0.00000000  9.61014557
   6.33043670  0.00000000 11.73102311
   0.00000000  2.11014557 11.73102311
   6.33043670  2.11014557 13.82955363
   0.00000000  0.00000000 13.82955363
   6.33043670  4.22029113  7.50000000
   0.00000000  6.33043670  7.50000000
   6.33043670  6.33043670  9.61014557
   0.00000000  4.22029113  9.61014557
   6.33043670  4.22029113 11.73102311
   0.00000000  6.33043670 11.73102311
   6.33043670  6.33043670 13.82955363
   0.00000000  4.22029113 13.82955363
   2.11014557  0.00000000  9.61014557
   4.22029113  2.11014557  9.61014557
   2.11014557  2.11014557  7.50000000
   4.22029113  0.00000000  7.50000000
   2.11014557  0.00000000 13.86857013
   4.22029113  2.11014557 13.86857013
   2.11014557  2.11014557 11.72549760
   4.22029113  0.00000000 11.72549760
   2.11014557  4.22029113  9.61014557
   4.22029113  6.33043670  9.61014557
   2.11014557  6.33043670  7.50000000
   4.22029113  4.22029113  7.50000000
   2.11014557  4.22029113 13.86857013
   4.22029113  6.33043670 13.86857013
   2.11014557  6.33043670 11.72549760
   4.22029113  4.22029113 11.72549760
   6.33043670  0.00000000  9.61014557
   0.00000000  2.11014557  9.61014557
   6.33043670  2.11014557  7.50000000
   0.00000000  0.00000000  7.50000000
   6.33043670  0.00000000 13.86857013
   0.00000000  2.11014557 13.86857013
   6.33043670  2.11014557 11.72549760
   0.00000000  0.00000000 11.72549760
   6.33043670  4.22029113  9.61014557
   0.00000000  6.33043670  9.61014557
   6.33043670  6.33043670  7.50000000
   0.00000000  4.22029113  7.50000000
   6.33043670  4.22029113 13.86857013
   0.00000000  6.33043670 13.86857013
   6.33043670  6.33043670 11.72549760
   0.00000000  4.22029113 11.72549760



--------------------------------------------------------------------------------------------------------


 k-point   1 :   0.0000 0.0000 0.0000  plane waves:   50729
 k-point   2 :   0.5000 0.0000 0.0000  plane waves:   50790
 k-point   3 :   0.5000 0.5000 0.0000  plane waves:   50752

 maximum and minimum number of plane-waves per node :     25432    25334

 maximum number of plane-waves:     50790
 maximum index in each direction:
   IXMAX=   16   IYMAX=   16   IZMAX=   42
   IXMIN=  -17   IYMIN=  -17   IZMIN=  -42


 parallel 3D FFT for wavefunctions:
    minimum data exchange during FFTs selected (reduces bandwidth)
 parallel 3D FFT for charge:
    minimum data exchange during FFTs selected (reduces bandwidth)


 total amount of memory used by VASP MPI-rank0   114954. kBytes
=======================================================================

   base      :      30000. kBytes
   nonl-proj :      42083. kBytes
   fftplans  :      14615. kBytes
   grid      :      20512. kBytes
   one-center:        259. kBytes
   wavefun   :       7485. kBytes

     INWAV:  cpu time      0.0000: real time      0.0000
 Broyden mixing: mesh for mixing (old mesh)
   NGX = 33   NGY = 33   NGZ = 85
  (NGX  =140   NGY  =140   NGZ  =360)
  gives a total of  92565 points

 initial charge density was supplied:
 charge density of overlapping atoms calculated
 number of electron     448.0000000 magnetization
 keeping initial charge density in first step


--------------------------------------------------------------------------------------------------------


 Maximum index for augmentation-charges          608 (set IRDMAX)


--------------------------------------------------------------------------------------------------------


 First call to EWALD:  gamma=   0.154
 Maximum number of real-space cells 4x 4x 2
 Maximum number of reciprocal cells 2x 2x 5

    FEWALD:  cpu time      0.0015: real time      0.0015


--------------------------------------- Iteration      1(   1)  ---------------------------------------


vdW kernel read from vdw_kernel.bindat
  0.0000  0.2424  0.5071  0.7962  1.1119  1.4567  1.8333  2.2446  2.6937  3.1842
  3.7199  4.3049  4.9438  5.6415  6.4036  7.2358  8.1446  9.1372 10.2212 11.4050
 12.6979 14.1099 15.6519 17.3360 19.1751 21.1837 23.3773 25.7729 28.3892 31.2465
 34.3669 37.7748 41.4965 45.5611 50.0000

    POTLOK:  cpu time      0.4740: real time      0.4826
    SETDIJ:  cpu time      0.0874: real time      0.0876
    TRIAL :  cpu time      3.2210: real time      3.2347
    CORREC:  cpu time      0.0003: real time      0.0003
    --------------------------------------------
      LOOP:  cpu time      3.7861: real time      3.8101

 eigenvalue-minimisations  :  2280
 total energy-change (2. order) : 0.3396529E+04  (-0.3060068E+05)
 number of electron     448.0000000 magnetization
 augmentation part      448.0000000 magnetization

 DIPCOR: dipole corrections for dipol
 direction  3 min pos     1,
 dipolmoment           0.000000      0.000000     -0.000003 electrons x Angstroem
 Tr[quadrupol]     -5963.987529

 energy correction for charged system         0.000000 eV
 dipol+quadrupol energy correction           -0.000000 eV
 added-field ion interaction          0.000001 eV  (added to PSCEN)


 Free energy of the ion-electron system (eV)
  ---------------------------------------------------
  alpha Z        PSCENC =       875.35512618
  Ewald energy   TEWEN  =    140900.49187991
  -Hartree energ DENC   =   -176401.23706801
  -exchange      EXHF   =         0.00000000
  -V(xc)+E(xc)   XCENC  =      1744.69676107
  PAW double counting   =     31883.82553272   -35683.02952655
  entropy T*S    EENTRO =        -0.00749386
  eigenvalues    EBANDS =     -7707.44506351
  atomic energy  EATOM  =     47783.87840219
  ---------------------------------------------------
  free energy    TOTEN  =      3396.52855014 eV

  energy without entropy =     3396.53604400  energy(sigma->0) =     3396.53229707


--------------------------------------------------------------------------------------------------------




--------------------------------------- Iteration      1(   2)  ---------------------------------------


    TRIAL :  cpu time      3.1326: real time      3.1464
    CORREC:  cpu time      0.0001: real time      0.0001
    --------------------------------------------
      LOOP:  cpu time      3.1342: real time      3.1518

 eigenvalue-minimisations  :  2280
 total energy-change (2. order) :-0.3527981E+04  (-0.3516280E+04)
 number of electron     448.0000000 magnetization
 augmentation part      448.0000000 magnetization

 DIPCOR: dipole corrections for dipol
 direction  3 min pos     1,
 dipolmoment           0.000000      0.000000     -0.000003 electrons x Angstroem
 Tr[quadrupol]     -5963.987529

 energy correction for charged system         0.000000 eV
 dipol+quadrupol energy correction           -0.000000 eV
 added-field ion interaction          0.000001 eV  (added to PSCEN)


 Free energy of the ion-electron system (eV)
  ---------------------------------------------------
  alpha Z        PSCENC =       875.35512618
  Ewald energy   TEWEN  =    140900.49187991
  -Hartree energ DENC   =   -176401.23706801
  -exchange      EXHF   =         0.00000000
  -V(xc)+E(xc)   XCENC  =      1744.69676107
  PAW double counting   =     31883.82553272   -35683.02952655
  entropy T*S    EENTRO =        -0.00000000
  eigenvalues    EBANDS =    -11235.43378002
  atomic energy  EATOM  =     47783.87840219
  ---------------------------------------------------
  free energy    TOTEN  =      -131.45267251 eV

  energy without entropy =     -131.45267251  energy(sigma->0) =     -131.45267251


--------------------------------------------------------------------------------------------------------




--------------------------------------- Iteration      1(   3)  ---------------------------------------


    TRIAL :  cpu time      4.2688: real time      4.2864
    CORREC:  cpu time      0.0001: real time      0.0001
    --------------------------------------------
      LOOP:  cpu time      4.2700: real time      4.2905

 eigenvalue-minimisations  :  2736
 total energy-change (2. order) :-0.1955300E+03  (-0.1952201E+03)
 number of electron     448.0000000 magnetization
 augmentation part      448.0000000 magnetization

 DIPCOR: dipole corrections for dipol
 direction  3 min pos     1,
 dipolmoment           0.000000      0.000000     -0.000003 electrons x Angstroem
 Tr[quadrupol]     -5963.987529

 energy correction for charged system         0.000000 eV
 dipol+quadrupol energy correction           -0.000000 eV
 added-field ion interaction          0.000001 eV  (added to PSCEN)


 Free energy of the ion-electron system (eV)
  ---------------------------------------------------
  alpha Z        PSCENC =       875.35512618
  Ewald energy   TEWEN  =    140900.49187991
  -Hartree energ DENC   =   -176401.23706801
  -exchange      EXHF   =         0.00000000
  -V(xc)+E(xc)   XCENC  =      1744.69676107
  PAW double counting   =     31883.82553272   -35683.02952655
  entropy T*S    EENTRO =        -0.00000000
  eigenvalues    EBANDS =    -11430.96376677
  atomic energy  EATOM  =     47783.87840219
  ---------------------------------------------------
  free energy    TOTEN  =      -326.98265926 eV

  energy without entropy =     -326.98265926  energy(sigma->0) =     -326.98265926


--------------------------------------------------------------------------------------------------------




--------------------------------------- Iteration      1(   4)  ---------------------------------------


    TRIAL :  cpu time      2.2949: real time      2.3043
    CORREC:  cpu time      0.0001: real time      0.0001
    --------------------------------------------
      LOOP:  cpu time      2.2970: real time      2.3083

 eigenvalue-minimisations  :  1824
 total energy-change (2. order) :-0.1627909E+01  (-0.1627819E+01)
 number of electron     448.0000000 magnetization
 augmentation part      448.0000000 magnetization

 DIPCOR: dipole corrections for dipol
 direction  3 min pos     1,
 dipolmoment           0.000000      0.000000     -0.000003 electrons x Angstroem
 Tr[quadrupol]     -5963.987529

 energy correction for charged system         0.000000 eV
 dipol+quadrupol energy correction           -0.000000 eV
 added-field ion interaction          0.000001 eV  (added to PSCEN)


 Free energy of the ion-electron system (eV)
  ---------------------------------------------------
  alpha Z        PSCENC =       875.35512618
  Ewald energy   TEWEN  =    140900.49187991
  -Hartree energ DENC   =   -176401.23706801
  -exchange      EXHF   =         0.00000000
  -V(xc)+E(xc)   XCENC  =      1744.69676107
  PAW double counting   =     31883.82553272   -35683.02952655
  entropy T*S    EENTRO =        -0.00000000
  eigenvalues    EBANDS =    -11432.59167571
  atomic energy  EATOM  =     47783.87840219
  ---------------------------------------------------
  free energy    TOTEN  =      -328.61056820 eV

  energy without entropy =     -328.61056820  energy(sigma->0) =     -328.61056820


--------------------------------------------------------------------------------------------------------




--------------------------------------- Iteration      1(   5)  ---------------------------------------


    TRIAL :  cpu time      4.2667: real time      4.2831
    CORREC:  cpu time      0.0001: real time      0.0001
    CHARGE:  cpu time      0.1802: real time      0.1808
    --------------------------------------------
      LOOP:  cpu time      4.4484: real time      4.4677

 eigenvalue-minimisations  :  2736
 total energy-change (2. order) :-0.2325518E-01  (-0.2325473E-01)
 number of electron     447.9999565 magnetization
 augmentation part      158.8616900 magnetization

 DIPCOR: dipole corrections for dipol
 direction  3 min pos     1,
 dipolmoment           0.000000      0.000000     -0.000003 electrons x Angstroem
 Tr[quadrupol]     -5963.987529

 energy correction for charged system         0.000000 eV
 dipol+quadrupol energy correction           -0.000000 eV
 added-field ion interaction          0.000001 eV  (added to PSCEN)


 Free energy of the ion-electron system (eV)
  ---------------------------------------------------
  alpha Z        PSCENC =       875.35512618
  Ewald energy   TEWEN  =    140900.49187991
  -Hartree energ DENC   =   -176401.23706801
  -exchange      EXHF   =         0.00000000
  -V(xc)+E(xc)   XCENC  =      1744.69676107
  PAW double counting   =     31883.82553272   -35683.02952655
  entropy T*S    EENTRO =        -0.00000000
  eigenvalues    EBANDS =    -11432.61493088
  atomic energy  EATOM  =     47783.87840219
  ---------------------------------------------------
  free energy    TOTEN  =      -328.63382337 eV

  energy without entropy =     -328.63382337  energy(sigma->0) =     -328.63382337


--------------------------------------------------------------------------------------------------------




--------------------------------------- Iteration      1(   6)  ---------------------------------------


    POTLOK:  cpu time      0.3120: real time      0.3130
    SETDIJ:  cpu time      0.0856: real time      0.0857
    TRIAL :  cpu time      0.8912: real time      0.8950
    CORREC:  cpu time      0.8649: real time      0.8676
    CHARGE:  cpu time      0.1747: real time      0.1753
    --------------------------------------------
      LOOP:  cpu time      2.3301: real time      2.3405

 eigenvalue-minimisations  :     0
 total energy-change (2. order) : 0.1757059E+03  (-0.9752092E+02)
 number of electron     447.9999566 magnetization
 augmentation part      156.0526102 magnetization

 DIPCOR: dipole corrections for dipol
 direction  3 min pos     1,
 dipolmoment           0.000000      0.000000      0.245329 electrons x Angstroem
 Tr[quadrupol]     -5997.182003

 energy correction for charged system         0.000000 eV
 dipol+quadrupol energy correction           -0.003583 eV
 added-field ion interaction         -0.079186 eV  (added to PSCEN)


 Free energy of the ion-electron system (eV)
  ---------------------------------------------------
  alpha Z        PSCENC =       875.19392249
  Ewald energy   TEWEN  =    140900.49187991
  -Hartree energ DENC   =   -180260.21068831
  -exchange      EXHF   =         0.00000000
  -V(xc)+E(xc)   XCENC  =      1867.01233280
  PAW double counting   =     36113.82836591   -39859.24785061
  entropy T*S    EENTRO =        -0.00000000
  eigenvalues    EBANDS =     -7573.87430239
  atomic energy  EATOM  =     47783.87840219
  ---------------------------------------------------
  free energy    TOTEN  =      -152.92793802 eV

  energy without entropy =     -152.92793802  energy(sigma->0) =     -152.92793802


--------------------------------------------------------------------------------------------------------




--------------------------------------- Iteration      1(   7)  ---------------------------------------


    POTLOK:  cpu time      0.3073: real time      0.3083
    SETDIJ:  cpu time      0.0863: real time      0.0865
    TRIAL :  cpu time      0.8831: real time      0.8868
    CORREC:  cpu time      0.8468: real time      0.8495
    CHARGE:  cpu time      0.1778: real time      0.1784
    --------------------------------------------
      LOOP:  cpu time      2.3032: real time      2.3136

 eigenvalue-minimisations  :     0
 total energy-change (2. order) :-0.9811760E+02  (-0.6781956E+01)
 number of electron     447.9999570 magnetization
 augmentation part      154.1811669 magnetization

 DIPCOR: dipole corrections for dipol
 direction  3 min pos     1,
 dipolmoment           0.000000      0.000000      0.196221 electrons x Angstroem
 Tr[quadrupol]     -6004.315125

 energy correction for charged system         0.000000 eV
 dipol+quadrupol energy correction           -0.002292 eV
 added-field ion interaction         -0.063335 eV  (added to PSCEN)


 Free energy of the ion-electron system (eV)
  ---------------------------------------------------
  alpha Z        PSCENC =       875.26021771
  Ewald energy   TEWEN  =    140900.49187991
  -Hartree energ DENC   =   -178372.54512680
  -exchange      EXHF   =         0.00000000
  -V(xc)+E(xc)   XCENC  =      1798.68569653
  PAW double counting   =     34981.22597858   -38802.25167948
  entropy T*S    EENTRO =        -0.00000000
  eigenvalues    EBANDS =     -9415.79090798
  atomic energy  EATOM  =     47783.87840219
  ---------------------------------------------------
  free energy    TOTEN  =      -251.04553935 eV

  energy without entropy =     -251.04553935  energy(sigma->0) =     -251.04553935


--------------------------------------------------------------------------------------------------------




--------------------------------------- Iteration      1(   8)  ---------------------------------------


    POTLOK:  cpu time      0.3089: real time      0.3100
    SETDIJ:  cpu time      0.0856: real time      0.0858
    TRIAL :  cpu time      0.8800: real time      0.8837
    CORREC:  cpu time      0.8434: real time      0.8460
    CHARGE:  cpu time      0.1752: real time      0.1758
    --------------------------------------------
      LOOP:  cpu time      2.2957: real time      2.3055

 eigenvalue-minimisations  :     0
 total energy-change (2. order) :-0.6798058E+01  (-0.4287200E+01)
 number of electron     447.9999569 magnetization
 augmentation part      154.3292986 magnetization

 DIPCOR: dipole corrections for dipol
 direction  3 min pos     1,
 dipolmoment           0.000000      0.000000      0.132977 electrons x Angstroem
 Tr[quadrupol]     -6002.766767

 energy correction for charged system         0.000000 eV
 dipol+quadrupol energy correction           -0.001053 eV
 added-field ion interaction         -0.042922 eV  (added to PSCEN)


 Free energy of the ion-electron system (eV)
  ---------------------------------------------------
  alpha Z        PSCENC =       875.29810379
  Ewald energy   TEWEN  =    140900.49187991
  -Hartree energ DENC   =   -178267.20237053
  -exchange      EXHF   =         0.00000000
  -V(xc)+E(xc)   XCENC  =      1788.60408168
  PAW double counting   =     34875.85971263   -38625.77777446
  entropy T*S    EENTRO =        -0.00000000
  eigenvalues    EBANDS =     -9588.99563293
  atomic energy  EATOM  =     47783.87840219
  ---------------------------------------------------
  free energy    TOTEN  =      -257.84359772 eV

  energy without entropy =     -257.84359772  energy(sigma->0) =     -257.84359772


--------------------------------------------------------------------------------------------------------




--------------------------------------- Iteration      1(   9)  ---------------------------------------


    POTLOK:  cpu time      0.3103: real time      0.3113
    SETDIJ:  cpu time      0.0856: real time      0.0858
    TRIAL :  cpu time      0.8770: real time      0.8816
    CORREC:  cpu time      0.8418: real time      0.8445
    CHARGE:  cpu time      0.1776: real time      0.1782
    --------------------------------------------
      LOOP:  cpu time      2.2949: real time      2.3060

 eigenvalue-minimisations  :     0
 total energy-change (2. order) :-0.4197341E+01  (-0.1790755E+01)
 number of electron     447.9999569 magnetization
 augmentation part      154.3340883 magnetization

 DIPCOR: dipole corrections for dipol
 direction  3 min pos     1,
 dipolmoment           0.000000      0.000000      0.094945 electrons x Angstroem
 Tr[quadrupol]     -5995.838868

 energy correction for charged system         0.000000 eV
 dipol+quadrupol energy correction           -0.000537 eV
 added-field ion interaction         -0.030646 eV  (added to PSCEN)


 Free energy of the ion-electron system (eV)
  ---------------------------------------------------
  alpha Z        PSCENC =       875.31961116
  Ewald energy   TEWEN  =    140900.49187991
  -Hartree energ DENC   =   -178140.14886305
  -exchange      EXHF   =         0.00000000
  -V(xc)+E(xc)   XCENC  =      1788.28785847
  PAW double counting   =     34806.40275389   -38593.62071247
  entropy T*S    EENTRO =        -0.00000000
  eigenvalues    EBANDS =     -9682.65186839
  atomic energy  EATOM  =     47783.87840219
  ---------------------------------------------------
  free energy    TOTEN  =      -262.04093830 eV

  energy without entropy =     -262.04093830  energy(sigma->0) =     -262.04093830


--------------------------------------------------------------------------------------------------------




--------------------------------------- Iteration      1(  10)  ---------------------------------------


    POTLOK:  cpu time      0.3137: real time      0.3147
    SETDIJ:  cpu time      0.0854: real time      0.0855
    TRIAL :  cpu time      0.8765: real time      0.8803
    CORREC:  cpu time      0.8426: real time      0.8452
    CHARGE:  cpu time      0.1763: real time      0.1769
    --------------------------------------------
      LOOP:  cpu time      2.2960: real time      2.3066

 eigenvalue-minimisations  :     0
 total energy-change (2. order) :-0.1809350E+01  (-0.6220529E+00)
 number of electron     447.9999569 magnetization
 augmentation part      154.2709218 magnetization

 DIPCOR: dipole corrections for dipol
 direction  3 min pos     1,
 dipolmoment           0.000000      0.000000      0.111870 electrons x Angstroem
 Tr[quadrupol]     -5995.058528

 energy correction for charged system         0.000000 eV
 dipol+quadrupol energy correction           -0.000745 eV
 added-field ion interaction         -0.036109 eV  (added to PSCEN)


 Free energy of the ion-electron system (eV)
  ---------------------------------------------------
  alpha Z        PSCENC =       875.32282525
  Ewald energy   TEWEN  =    140900.49187991
  -Hartree energ DENC   =   -177966.35831235
  -exchange      EXHF   =         0.00000000
  -V(xc)+E(xc)   XCENC  =      1786.60312154
  PAW double counting   =     34695.22446298   -38490.28314091
  entropy T*S    EENTRO =        -0.00000000
  eigenvalues    EBANDS =     -9848.72952705
  atomic energy  EATOM  =     47783.87840219
  ---------------------------------------------------
  free energy    TOTEN  =      -263.85028844 eV

  energy without entropy =     -263.85028844  energy(sigma->0) =     -263.85028844


--------------------------------------------------------------------------------------------------------




--------------------------------------- Iteration      1(  11)  ---------------------------------------


    POTLOK:  cpu time      0.3115: real time      0.3124
    SETDIJ:  cpu time      0.0857: real time      0.0859
    TRIAL :  cpu time      0.8738: real time      0.8775
    CORREC:  cpu time      0.8427: real time      0.8454
    CHARGE:  cpu time      0.1771: real time      0.1777
    --------------------------------------------
      LOOP:  cpu time      2.2925: real time      2.3031

 eigenvalue-minimisations  :     0
 total energy-change (2. order) :-0.6236301E+00  (-0.2157030E+00)
 number of electron     447.9999569 magnetization
 augmentation part      154.3592950 magnetization

 DIPCOR: dipole corrections for dipol
 direction  3 min pos     1,
 dipolmoment           0.000000      0.000000      0.123652 electrons x Angstroem
 Tr[quadrupol]     -5995.851173

 energy correction for charged system         0.000000 eV
 dipol+quadrupol energy correction           -0.000910 eV
 added-field ion interaction         -0.039912 eV  (added to PSCEN)


 Free energy of the ion-electron system (eV)
  ---------------------------------------------------
  alpha Z        PSCENC =       875.31884083
  Ewald energy   TEWEN  =    140900.49187991
  -Hartree energ DENC   =   -177905.92451278
  -exchange      EXHF   =         0.00000000
  -V(xc)+E(xc)   XCENC  =      1785.53223547
  PAW double counting   =     34632.70576784   -38418.74779995
  entropy T*S    EENTRO =        -0.00000000
  eigenvalues    EBANDS =     -9917.72873205
  atomic energy  EATOM  =     47783.87840219
  ---------------------------------------------------
  free energy    TOTEN  =      -264.47391855 eV

  energy without entropy =     -264.47391855  energy(sigma->0) =     -264.47391855


--------------------------------------------------------------------------------------------------------




--------------------------------------- Iteration      1(  12)  ---------------------------------------


    POTLOK:  cpu time      0.3133: real time      0.3143
    SETDIJ:  cpu time      0.0857: real time      0.0859
    TRIAL :  cpu time      0.8741: real time      0.8778
    CORREC:  cpu time      0.8417: real time      0.8443
    CHARGE:  cpu time      0.1754: real time      0.1760
    --------------------------------------------
      LOOP:  cpu time      2.2917: real time      2.3023

 eigenvalue-minimisations  :     0
 total energy-change (2. order) :-0.2156877E+00  (-0.7745282E-01)
 number of electron     447.9999569 magnetization
 augmentation part      154.4726583 magnetization

 DIPCOR: dipole corrections for dipol
 direction  3 min pos     1,
 dipolmoment           0.000000      0.000000      0.129729 electrons x Angstroem
 Tr[quadrupol]     -5996.453674

 energy correction for charged system         0.000000 eV
 dipol+quadrupol energy correction           -0.001002 eV
 added-field ion interaction         -0.041873 eV  (added to PSCEN)


 Free energy of the ion-electron system (eV)
  ---------------------------------------------------
  alpha Z        PSCENC =       875.31446417
  Ewald energy   TEWEN  =    140900.49187991
  -Hartree energ DENC   =   -177928.43099559
  -exchange      EXHF   =         0.00000000
  -V(xc)+E(xc)   XCENC  =      1785.79400177
  PAW double counting   =     34620.94095462   -38404.96834023
  entropy T*S    EENTRO =        -0.00000000
  eigenvalues    EBANDS =     -9897.70997306
  atomic energy  EATOM  =     47783.87840219
  ---------------------------------------------------
  free energy    TOTEN  =      -264.68960623 eV

  energy without entropy =     -264.68960623  energy(sigma->0) =     -264.68960623


--------------------------------------------------------------------------------------------------------




--------------------------------------- Iteration      1(  13)  ---------------------------------------


    POTLOK:  cpu time      0.3122: real time      0.3132
    SETDIJ:  cpu time      0.0857: real time      0.0859
    TRIAL :  cpu time      0.8723: real time      0.8760
    CORREC:  cpu time      0.8438: real time      0.8465
    CHARGE:  cpu time      0.1788: real time      0.1794
    --------------------------------------------
      LOOP:  cpu time      2.2938: real time      2.3050

 eigenvalue-minimisations  :     0
 total energy-change (2. order) :-0.7746046E-01  (-0.3633617E-01)
 number of electron     447.9999569 magnetization
 augmentation part      154.5216021 magnetization

 DIPCOR: dipole corrections for dipol
 direction  3 min pos     1,
 dipolmoment           0.000000      0.000000      0.133080 electrons x Angstroem
 Tr[quadrupol]     -5996.812884

 energy correction for charged system         0.000000 eV
 dipol+quadrupol energy correction           -0.001054 eV
 added-field ion interaction         -0.042955 eV  (added to PSCEN)


 Free energy of the ion-electron system (eV)
  ---------------------------------------------------
  alpha Z        PSCENC =       875.31218482
  Ewald energy   TEWEN  =    140900.49187991
  -Hartree energ DENC   =   -177955.91630061
  -exchange      EXHF   =         0.00000000
  -V(xc)+E(xc)   XCENC  =      1786.15354537
  PAW double counting   =     34623.65239163   -38410.78035246
  entropy T*S    EENTRO =        -0.00000000
  eigenvalues    EBANDS =     -9867.55881753
  atomic energy  EATOM  =     47783.87840219
  ---------------------------------------------------
  free energy    TOTEN  =      -264.76706669 eV

  energy without entropy =     -264.76706669  energy(sigma->0) =     -264.76706669


--------------------------------------------------------------------------------------------------------




--------------------------------------- Iteration      1(  14)  ---------------------------------------


    POTLOK:  cpu time      0.3136: real time      0.3145
    SETDIJ:  cpu time      0.0854: real time      0.0856
    TRIAL :  cpu time      0.8708: real time      0.8745
    CORREC:  cpu time      0.8419: real time      0.8446
    CHARGE:  cpu time      0.1778: real time      0.1784
    --------------------------------------------
      LOOP:  cpu time      2.2906: real time      2.3014

 eigenvalue-minimisations  :     0
 total energy-change (2. order) :-0.3636160E-01  (-0.1750038E-01)
 number of electron     447.9999569 magnetization
 augmentation part      154.5080879 magnetization

 DIPCOR: dipole corrections for dipol
 direction  3 min pos     1,
 dipolmoment           0.000000      0.000000      0.136498 electrons x Angstroem
 Tr[quadrupol]     -5997.123205

 energy correction for charged system         0.000000 eV
 dipol+quadrupol energy correction           -0.001109 eV
 added-field ion interaction         -0.044058 eV  (added to PSCEN)


 Free energy of the ion-electron system (eV)
  ---------------------------------------------------
  alpha Z        PSCENC =       875.31091139
  Ewald energy   TEWEN  =    140900.49187991
  -Hartree energ DENC   =   -177970.11407156
  -exchange      EXHF   =         0.00000000
  -V(xc)+E(xc)   XCENC  =      1786.22779518
  PAW double counting   =     34627.41389714   -38416.44396784
  entropy T*S    EENTRO =        -0.00000000
  eigenvalues    EBANDS =     -9851.56827468
  atomic energy  EATOM  =     47783.87840219
  ---------------------------------------------------
  free energy    TOTEN  =      -264.80342829 eV

  energy without entropy =     -264.80342829  energy(sigma->0) =     -264.80342829


--------------------------------------------------------------------------------------------------------




--------------------------------------- Iteration      1(  15)  ---------------------------------------


    POTLOK:  cpu time      0.3148: real time      0.3158
    SETDIJ:  cpu time      0.0857: real time      0.0859
    TRIAL :  cpu time      0.8718: real time      0.8755
    CORREC:  cpu time      0.8379: real time      0.8406
    CHARGE:  cpu time      0.1783: real time      0.1789
    --------------------------------------------
      LOOP:  cpu time      2.2906: real time      2.3007

 eigenvalue-minimisations  :     0
 total energy-change (2. order) :-0.1751583E-01  (-0.7814320E-02)
 number of electron     447.9999569 magnetization
 augmentation part      154.4891911 magnetization

 DIPCOR: dipole corrections for dipol
 direction  3 min pos     1,
 dipolmoment           0.000000      0.000000      0.139303 electrons x Angstroem
 Tr[quadrupol]     -5997.375181

 energy correction for charged system         0.000000 eV
 dipol+quadrupol energy correction           -0.001155 eV
 added-field ion interaction         -0.044964 eV  (added to PSCEN)


 Free energy of the ion-electron system (eV)
  ---------------------------------------------------
  alpha Z        PSCENC =       875.30975455
  Ewald energy   TEWEN  =    140900.49187991
  -Hartree energ DENC   =   -177979.45485542
  -exchange      EXHF   =         0.00000000
  -V(xc)+E(xc)   XCENC  =      1786.25205371
  PAW double counting   =     34632.56966020   -38420.75177770
  entropy T*S    EENTRO =        -0.00000000
  eigenvalues    EBANDS =     -9843.11606155
  atomic energy  EATOM  =     47783.87840219
  ---------------------------------------------------
  free energy    TOTEN  =      -264.82094411 eV

  energy without entropy =     -264.82094411  energy(sigma->0) =     -264.82094411


--------------------------------------------------------------------------------------------------------




--------------------------------------- Iteration      1(  16)  ---------------------------------------


    POTLOK:  cpu time      0.3149: real time      0.3158
    SETDIJ:  cpu time      0.0865: real time      0.0867
    TRIAL :  cpu time      0.8701: real time      0.8738
    CORREC:  cpu time      0.8422: real time      0.8449
    CHARGE:  cpu time      0.1757: real time      0.1763
    --------------------------------------------
      LOOP:  cpu time      2.2914: real time      2.3015

 eigenvalue-minimisations  :     0
 total energy-change (2. order) :-0.7818557E-02  (-0.3028329E-02)
 number of electron     447.9999569 magnetization
 augmentation part      154.4846168 magnetization

 DIPCOR: dipole corrections for dipol
 direction  3 min pos     1,
 dipolmoment           0.000000      0.000000      0.140330 electrons x Angstroem
 Tr[quadrupol]     -5997.503039

 energy correction for charged system         0.000000 eV
 dipol+quadrupol energy correction           -0.001172 eV
 added-field ion interaction         -0.045295 eV  (added to PSCEN)


 Free energy of the ion-electron system (eV)
  ---------------------------------------------------
  alpha Z        PSCENC =       875.30883419
  Ewald energy   TEWEN  =    140900.49187991
  -Hartree energ DENC   =   -177988.86679452
  -exchange      EXHF   =         0.00000000
  -V(xc)+E(xc)   XCENC  =      1786.36352962
  PAW double counting   =     34638.09069229   -38425.35458363
  entropy T*S    EENTRO =        -0.00000000
  eigenvalues    EBANDS =     -9834.74072272
  atomic energy  EATOM  =     47783.87840219
  ---------------------------------------------------
  free energy    TOTEN  =      -264.82876267 eV

  energy without entropy =     -264.82876267  energy(sigma->0) =     -264.82876267


--------------------------------------------------------------------------------------------------------




--------------------------------------- Iteration      1(  17)  ---------------------------------------


    POTLOK:  cpu time      0.3142: real time      0.3152
    SETDIJ:  cpu time      0.0857: real time      0.0859
    TRIAL :  cpu time      0.8679: real time      0.8718
    CORREC:  cpu time      0.8399: real time      0.8426
    CHARGE:  cpu time      0.1776: real time      0.1782
    --------------------------------------------
      LOOP:  cpu time      2.2867: real time      2.2977

 eigenvalue-minimisations  :     0
 total energy-change (2. order) :-0.3026158E-02  (-0.1161810E-02)
 number of electron     447.9999569 magnetization
 augmentation part      154.4850703 magnetization

 DIPCOR: dipole corrections for dipol
 direction  3 min pos     1,
 dipolmoment           0.000000      0.000000      0.139741 electrons x Angstroem
 Tr[quadrupol]     -5997.510494

 energy correction for charged system         0.000000 eV
 dipol+quadrupol energy correction           -0.001163 eV
 added-field ion interaction         -0.045105 eV  (added to PSCEN)


 Free energy of the ion-electron system (eV)
  ---------------------------------------------------
  alpha Z        PSCENC =       875.30862024
  Ewald energy   TEWEN  =    140900.49187991
  -Hartree energ DENC   =   -177993.08930272
  -exchange      EXHF   =         0.00000000
  -V(xc)+E(xc)   XCENC  =      1786.42660152
  PAW double counting   =     34641.04531146   -38428.43227282
  entropy T*S    EENTRO =        -0.00000000
  eigenvalues    EBANDS =     -9830.46102861
  atomic energy  EATOM  =     47783.87840219
  ---------------------------------------------------
  free energy    TOTEN  =      -264.83178883 eV

  energy without entropy =     -264.83178883  energy(sigma->0) =     -264.83178883


--------------------------------------------------------------------------------------------------------




--------------------------------------- Iteration      1(  18)  ---------------------------------------


    POTLOK:  cpu time      0.3145: real time      0.3155
    SETDIJ:  cpu time      0.0860: real time      0.0862
    TRIAL :  cpu time      0.8686: real time      0.8724
    CORREC:  cpu time      0.8427: real time      0.8454
    CHARGE:  cpu time      0.1764: real time      0.1770
    --------------------------------------------
      LOOP:  cpu time      2.2906: real time      2.3007

 eigenvalue-minimisations  :     0
 total energy-change (2. order) :-0.1160056E-02  (-0.4867699E-03)
 number of electron     447.9999569 magnetization
 augmentation part      154.4855700 magnetization

 DIPCOR: dipole corrections for dipol
 direction  3 min pos     1,
 dipolmoment           0.000000      0.000000      0.138621 electrons x Angstroem
 Tr[quadrupol]     -5997.475293

 energy correction for charged system         0.000000 eV
 dipol+quadrupol energy correction           -0.001144 eV
 added-field ion interaction         -0.044743 eV  (added to PSCEN)


 Free energy of the ion-electron system (eV)
  ---------------------------------------------------
  alpha Z        PSCENC =       875.30891940
  Ewald energy   TEWEN  =    140900.49187991
  -Hartree energ DENC   =   -177992.79552961
  -exchange      EXHF   =         0.00000000
  -V(xc)+E(xc)   XCENC  =      1786.43475680
  PAW double counting   =     34642.75223793   -38430.37505408
  entropy T*S    EENTRO =        -0.00000000
  eigenvalues    EBANDS =     -9830.52856142
  atomic energy  EATOM  =     47783.87840219
  ---------------------------------------------------
  free energy    TOTEN  =      -264.83294889 eV

  energy without entropy =     -264.83294889  energy(sigma->0) =     -264.83294889


--------------------------------------------------------------------------------------------------------




--------------------------------------- Iteration      1(  19)  ---------------------------------------


    POTLOK:  cpu time      0.3150: real time      0.3160
    SETDIJ:  cpu time      0.0862: real time      0.0864
    TRIAL :  cpu time      0.8721: real time      0.8758
    CORREC:  cpu time      0.8441: real time      0.8467
    CHARGE:  cpu time      0.1778: real time      0.1784
    --------------------------------------------
      LOOP:  cpu time      2.2963: real time      2.3074

 eigenvalue-minimisations  :     0
 total energy-change (2. order) :-0.4865893E-03  (-0.1951757E-03)
 number of electron     447.9999569 magnetization
 augmentation part      154.4851797 magnetization

 DIPCOR: dipole corrections for dipol
 direction  3 min pos     1,
 dipolmoment           0.000000      0.000000      0.137762 electrons x Angstroem
 Tr[quadrupol]     -5997.436466

 energy correction for charged system         0.000000 eV
 dipol+quadrupol energy correction           -0.001130 eV
 added-field ion interaction         -0.044466 eV  (added to PSCEN)


 Free energy of the ion-electron system (eV)
  ---------------------------------------------------
  alpha Z        PSCENC =       875.30934119
  Ewald energy   TEWEN  =    140900.49187991
  -Hartree energ DENC   =   -177991.34323786
  -exchange      EXHF   =         0.00000000
  -V(xc)+E(xc)   XCENC  =      1786.44134439
  PAW double counting   =     34644.10542609   -38431.67885349
  entropy T*S    EENTRO =        -0.00000000
  eigenvalues    EBANDS =     -9832.03773789
  atomic energy  EATOM  =     47783.87840219
  ---------------------------------------------------
  free energy    TOTEN  =      -264.83343548 eV

  energy without entropy =     -264.83343548  energy(sigma->0) =     -264.83343548


--------------------------------------------------------------------------------------------------------




--------------------------------------- Iteration      1(  20)  ---------------------------------------


    POTLOK:  cpu time      0.3155: real time      0.3165
    SETDIJ:  cpu time      0.0853: real time      0.0854
    TRIAL :  cpu time      0.8681: real time      0.8719
    CORREC:  cpu time      0.8408: real time      0.8435
    CHARGE:  cpu time      0.1757: real time      0.1763
    --------------------------------------------
      LOOP:  cpu time      2.2873: real time      2.2977

 eigenvalue-minimisations  :     0
 total energy-change (2. order) :-0.1953743E-03  (-0.7989775E-04)
 number of electron     447.9999569 magnetization
 augmentation part      154.4847524 magnetization

 DIPCOR: dipole corrections for dipol
 direction  3 min pos     1,
 dipolmoment           0.000000      0.000000      0.137447 electrons x Angstroem
 Tr[quadrupol]     -5997.410334

 energy correction for charged system         0.000000 eV
 dipol+quadrupol energy correction           -0.001125 eV
 added-field ion interaction         -0.044365 eV  (added to PSCEN)


 Free energy of the ion-electron system (eV)
  ---------------------------------------------------
  alpha Z        PSCENC =       875.30958718
  Ewald energy   TEWEN  =    140900.49187991
  -Hartree energ DENC   =   -177989.97152666
  -exchange      EXHF   =         0.00000000
  -V(xc)+E(xc)   XCENC  =      1786.43615722
  PAW double counting   =     34644.03180592   -38431.50821607
  entropy T*S    EENTRO =        -0.00000000
  eigenvalues    EBANDS =     -9833.50172053
  atomic energy  EATOM  =     47783.87840219
  ---------------------------------------------------
  free energy    TOTEN  =      -264.83363085 eV

  energy without entropy =     -264.83363085  energy(sigma->0) =     -264.83363085


--------------------------------------------------------------------------------------------------------




--------------------------------------- Iteration      1(  21)  ---------------------------------------


    POTLOK:  cpu time      0.3144: real time      0.3154
    SETDIJ:  cpu time      0.0870: real time      0.0872
    TRIAL :  cpu time      0.8681: real time      0.8719
    CORREC:  cpu time      0.8402: real time      0.8428
    CHARGE:  cpu time      0.1792: real time      0.1798
    --------------------------------------------
      LOOP:  cpu time      2.2912: real time      2.3010

 eigenvalue-minimisations  :     0
 total energy-change (2. order) :-0.7987298E-04  (-0.2722289E-04)
 number of electron     447.9999569 magnetization
 augmentation part      154.4851490 magnetization

 DIPCOR: dipole corrections for dipol
 direction  3 min pos     1,
 dipolmoment           0.000000      0.000000      0.137450 electrons x Angstroem
 Tr[quadrupol]     -5997.400363

 energy correction for charged system         0.000000 eV
 dipol+quadrupol energy correction           -0.001125 eV
 added-field ion interaction         -0.044365 eV  (added to PSCEN)


 Free energy of the ion-electron system (eV)
  ---------------------------------------------------
  alpha Z        PSCENC =       875.30965117
  Ewald energy   TEWEN  =    140900.49187991
  -Hartree energ DENC   =   -177989.00161076
  -exchange      EXHF   =         0.00000000
  -V(xc)+E(xc)   XCENC  =      1786.42088553
  PAW double counting   =     34642.99850569   -38430.46955190
  entropy T*S    EENTRO =        -0.00000000
  eigenvalues    EBANDS =     -9834.46187254
  atomic energy  EATOM  =     47783.87840219
  ---------------------------------------------------
  free energy    TOTEN  =      -264.83371072 eV

  energy without entropy =     -264.83371072  energy(sigma->0) =     -264.83371072


--------------------------------------------------------------------------------------------------------




--------------------------------------- Iteration      1(  22)  ---------------------------------------


    POTLOK:  cpu time      0.3139: real time      0.3148
    SETDIJ:  cpu time      0.0868: real time      0.0870
    TRIAL :  cpu time      0.8690: real time      0.8737
    CORREC:  cpu time      0.8401: real time      0.8427
    CHARGE:  cpu time      0.1764: real time      0.1770
    --------------------------------------------
      LOOP:  cpu time      2.2882: real time      2.2993

 eigenvalue-minimisations  :     0
 total energy-change (2. order) :-0.2722041E-04  (-0.1059507E-04)
 number of electron     447.9999569 magnetization
 augmentation part      154.4855834 magnetization

 DIPCOR: dipole corrections for dipol
 direction  3 min pos     1,
 dipolmoment           0.000000      0.000000      0.137544 electrons x Angstroem
 Tr[quadrupol]     -5997.399367

 energy correction for charged system         0.000000 eV
 dipol+quadrupol energy correction           -0.001126 eV
 added-field ion interaction         -0.044396 eV  (added to PSCEN)


 Free energy of the ion-electron system (eV)
  ---------------------------------------------------
  alpha Z        PSCENC =       875.30963020
  Ewald energy   TEWEN  =    140900.49187991
  -Hartree energ DENC   =   -177988.79515539
  -exchange      EXHF   =         0.00000000
  -V(xc)+E(xc)   XCENC  =      1786.41853871
  PAW double counting   =     34642.39747148   -38429.89385386
  entropy T*S    EENTRO =        -0.00000000
  eigenvalues    EBANDS =     -9834.64065118
  atomic energy  EATOM  =     47783.87840219
  ---------------------------------------------------
  free energy    TOTEN  =      -264.83373794 eV

  energy without entropy =     -264.83373794  energy(sigma->0) =     -264.83373794


--------------------------------------------------------------------------------------------------------




--------------------------------------- Iteration      1(  23)  ---------------------------------------


    POTLOK:  cpu time      0.3186: real time      0.3196
    SETDIJ:  cpu time      0.0856: real time      0.0858
    TRIAL :  cpu time      0.8700: real time      0.8737
    CORREC:  cpu time      0.8393: real time      0.8420
    CHARGE:  cpu time      0.1786: real time      0.1792
    --------------------------------------------
      LOOP:  cpu time      2.2945: real time      2.3045

 eigenvalue-minimisations  :     0
 total energy-change (2. order) :-0.1066763E-04  (-0.4730154E-05)
 number of electron     447.9999569 magnetization
 augmentation part      154.4854713 magnetization

 DIPCOR: dipole corrections for dipol
 direction  3 min pos     1,
 dipolmoment           0.000000      0.000000      0.137647 electrons x Angstroem
 Tr[quadrupol]     -5997.400423

 energy correction for charged system         0.000000 eV
 dipol+quadrupol energy correction           -0.001128 eV
 added-field ion interaction         -0.044429 eV  (added to PSCEN)


 Free energy of the ion-electron system (eV)
  ---------------------------------------------------
  alpha Z        PSCENC =       875.30959406
  Ewald energy   TEWEN  =    140900.49187991
  -Hartree energ DENC   =   -177988.85596563
  -exchange      EXHF   =         0.00000000
  -V(xc)+E(xc)   XCENC  =      1786.42194351
  PAW double counting   =     34642.25889650   -38429.76348503
  entropy T*S    EENTRO =        -0.00000000
  eigenvalues    EBANDS =     -9834.57501410
[...]
    276       7.7185      0.00000
    277       7.7275      0.00000
    278       7.7355      0.00000
    279       7.7394      0.00000
    280       7.7558      0.00000
    281       8.2346      0.00000
    282       8.2429      0.00000
    283       8.2457      0.00000
    284       8.2491      0.00000
    285       8.2550      0.00000
    286       8.2625      0.00000
    287       8.2648      0.00000
    288       8.2690      0.00000
    289       8.4858      0.00000
    290       8.5153      0.00000
    291       8.5324      0.00000
    292       8.5475      0.00000
    293       9.0326      0.00000
    294       9.0474      0.00000
    295       9.0600      0.00000
    296       9.0915      0.00000
    297       9.1161      0.00000
    298       9.1638      0.00000
    299       9.1932      0.00000
    300       9.2250      0.00000
    301       9.2673      0.00000
    302       9.3361      0.00000
    303       9.3584      0.00000
    304       9.5434      0.00000


--------------------------------------------------------------------------------------------------------


 soft charge-density along one line, spin component           1
         0         1         2         3         4         5         6         7         8         9
 total charge-density along one line

 pseudopotential strength for first ion, spin component:           1
-51.990  -0.000  -0.000   7.266   0.000   0.000  -0.000   0.000
 -0.000 -52.046   0.000   0.000   7.291  -0.000  -0.031   0.079
 -0.000   0.000 -51.990   0.000  -0.000   7.266  -0.000   0.000
  7.266   0.000   0.000   4.190  -0.000  -0.000   0.000   0.000
  0.000   7.291  -0.000  -0.000   4.194   0.000  -0.003   0.006
  0.000  -0.000   7.266  -0.000   0.000   4.190  -0.000   0.000
 -0.000  -0.031  -0.000   0.000  -0.003  -0.000   2.993 -11.053
  0.000   0.079   0.000   0.000   0.006   0.000 -11.053  46.104
  0.000  -0.000   0.000  -0.000  -0.000  -0.000   0.000  -0.000
  0.009   0.000  -0.000  -0.007  -0.000  -0.000   0.000  -0.000
 -0.000   0.010  -0.000   0.000  -0.015   0.000   0.008  -0.016
 -0.000   0.000   0.009  -0.000  -0.000  -0.007  -0.000   0.000
 -0.000   0.000   0.000   0.000   0.000  -0.000  -0.000   0.000
 total augmentation occupancy for first ion, spin component:           1
  2.002   0.000   0.000  -0.004   0.000   0.000   0.000  -0.000   0.000  -0.008  -0.000   0.000   0.000
  0.000   2.002   0.000   0.000   0.002  -0.000   0.001   0.004   0.000  -0.000  -0.014   0.000   0.000
  0.000   0.000   2.002   0.000   0.000  -0.004  -0.000  -0.000  -0.000  -0.000   0.000  -0.008  -0.000
 -0.004   0.000   0.000   0.078   0.000   0.000  -0.000  -0.000  -0.000   0.001   0.000   0.000   0.000
  0.000   0.002   0.000   0.000   0.048  -0.000   0.039   0.001   0.000   0.000   0.026   0.000  -0.000
  0.000  -0.000  -0.004   0.000  -0.000   0.078  -0.000   0.000  -0.000  -0.000  -0.000   0.001   0.000
  0.000   0.001  -0.000  -0.000   0.039  -0.000   0.833   0.013   0.000   0.000  -0.039  -0.000   0.000
 -0.000   0.004  -0.000  -0.000   0.001   0.000   0.013   0.000   0.000  -0.000  -0.001   0.000   0.000
  0.000   0.000  -0.000  -0.000   0.000  -0.000   0.000   0.000   0.013  -0.000   0.000  -0.000   0.000
 -0.008  -0.000  -0.000   0.001   0.000  -0.000   0.000  -0.000  -0.000   0.011   0.000   0.000   0.000
 -0.000  -0.014   0.000   0.000   0.026  -0.000  -0.039  -0.001   0.000   0.000   0.032  -0.000  -0.000
  0.000   0.000  -0.008   0.000   0.000   0.001  -0.000   0.000  -0.000   0.000  -0.000   0.011   0.000
  0.000   0.000  -0.000   0.000  -0.000   0.000   0.000   0.000   0.000   0.000  -0.000   0.000   0.053


------------------------ aborting loop because EDIFF is reached ----------------------------------------


    FORLOC:  cpu time      0.0027: real time      0.0028
    FORNL :  cpu time      0.2943: real time      0.2957
    STRESS:  cpu time      2.1168: real time      2.1246
    FORCOR:  cpu time      0.3089: real time      0.3099
    OFIELD:  cpu time      0.0001: real time      0.0001

  FORCE on cell =-STRESS in cart. coord.  units (eV):
  Direction    XX          YY          ZZ          XY          YZ          ZX
  --------------------------------------------------------------------------------------
  Alpha Z   875.35513   875.35513   875.35513
  Ewald  161541.80120161541.80120************     0.00000    -0.00000    -0.00000
  Hartree171572.27243171572.27243************    -0.00000    -0.00000    -0.00000
  E(xc)   -2455.98041 -2455.98041 -2456.07989    -0.00000     0.00000     0.00000
  Local  ************************343382.62576     0.00000    -0.00000    -0.00000
  n-local -2831.52383 -2832.38282 -2851.10195     0.00000    -0.00000     0.00000
  augment  1051.63934  1051.63934  1042.31135     0.00000     0.00000     0.00000
  Kinetic  7303.10362  7305.79120  7343.24950    -0.00001     0.00000    -0.00000
  Fock        0.00000     0.00000     0.00000     0.00000     0.00000     0.00000
  -------------------------------------------------------------------------------------
  Total     -29.97041   -29.97041    -2.37975     0.00000    -0.00000     0.00000
  in kB     -31.59793   -31.59793    -2.50898     0.00000    -0.00000     0.00000
  external pressure =      -21.90 kB  Pullay stress =        0.00 kB


 VOLUME and BASIS-vectors are now :
 -----------------------------------------------------------------------------
  energy-cutoff  :      600.00
  volume of cell :     1519.65
      direct lattice vectors                 reciprocal lattice vectors
     8.440582262  0.000000000  0.000000000     0.118475239  0.000000000  0.000000000
     0.000000000  8.440582262  0.000000000     0.000000000  0.118475239  0.000000000
     0.000000000  0.000000000 21.330436697     0.000000000  0.000000000  0.046881366

  length of vectors
     8.440582262  8.440582262 21.330436697     0.118475239  0.118475239  0.046881366


 FORCES acting on ions:
    Electron-Ion                     Ewald-Force                    Non-Local-Force
 -----------------------------------------------------------------------------------------------
   0.119E-12 0.902E-12 0.207E+04   0.106E-12 0.407E-13 -.206E+04   -.680E-23 -.586E-23 -.680E+01
   0.697E-12 -.364E-12 0.207E+04   0.995E-13 -.755E-14 -.206E+04   -.690E-23 0.664E-23 -.680E+01
   0.197E-12 0.135E-12 0.685E+03   0.000E+00 -.107E-13 -.685E+03   -.141E-23 -.330E-23 0.440E+00
   0.610E-12 -.162E-12 0.685E+03   0.631E-13 0.254E-13 -.685E+03   0.739E-23 -.117E-23 0.440E+00
   0.197E-12 -.404E-12 -.690E+03   0.134E-10 0.134E-10 0.690E+03   0.102E-22 -.116E-22 -.266E+00
   0.580E-12 -.176E-11 -.690E+03   -.134E-10 -.134E-10 0.690E+03   -.208E-22 -.848E-23 -.266E+00
   0.124E-12 0.532E-12 -.206E+04   0.152E-10 -.152E-10 0.205E+04   0.256E-22 0.665E-23 0.597E+01
   0.668E-12 0.559E-12 -.206E+04   -.151E-10 0.152E-10 0.205E+04   0.215E-22 0.922E-23 0.597E+01
   0.117E-12 0.160E-11 0.207E+04   0.160E-11 -.149E-11 -.206E+04   0.119E-22 0.562E-24 -.680E+01
   0.696E-12 0.376E-11 0.207E+04   -.148E-11 0.154E-11 -.206E+04   -.439E-23 0.506E-23 -.680E+01
   0.210E-12 0.953E-12 0.685E+03   -.146E-11 -.149E-10 -.685E+03   -.707E-23 0.127E-23 0.440E+00
   0.607E-12 0.320E-12 0.685E+03   0.151E-11 0.149E-10 -.685E+03   0.626E-24 -.267E-23 0.440E+00
   0.206E-12 0.522E-12 -.690E+03   0.119E-10 0.152E-10 0.690E+03   0.293E-22 -.347E-23 -.266E+00
   0.587E-12 0.232E-11 -.690E+03   -.119E-10 -.152E-10 0.690E+03   -.279E-25 0.180E-22 -.266E+00
   0.126E-12 0.106E-11 -.206E+04   0.167E-10 -.249E-13 0.205E+04   0.200E-22 -.449E-23 0.597E+01
   0.670E-12 0.114E-11 -.206E+04   -.166E-10 -.248E-13 0.205E+04   -.810E-23 -.764E-23 0.597E+01
   0.933E-12 0.936E-12 0.207E+04   -.292E-11 0.340E-13 -.206E+04   -.262E-23 0.639E-23 -.680E+01
   -.441E-13 0.131E-11 0.207E+04   0.302E-11 -.711E-14 -.206E+04   0.819E-23 0.122E-22 -.680E+01
   0.909E-12 -.287E-11 0.685E+03   0.164E-10 -.142E-13 -.685E+03   -.429E-23 0.146E-23 0.440E+00
   -.347E-13 -.175E-12 0.685E+03   -.164E-10 -.368E-13 -.685E+03   0.394E-23 -.111E-22 0.440E+00
   0.904E-12 -.394E-12 -.690E+03   0.167E-10 0.134E-10 0.690E+03   -.547E-23 -.143E-23 -.266E+00
   -.152E-13 -.229E-12 -.690E+03   -.167E-10 -.134E-10 0.690E+03   -.508E-24 0.307E-23 -.266E+00
   0.940E-12 -.136E-11 -.206E+04   -.142E-11 -.152E-10 0.205E+04   -.694E-23 0.545E-23 0.597E+01
   -.398E-13 0.525E-12 -.206E+04   0.139E-11 0.152E-10 0.205E+04   0.454E-23 0.324E-23 0.597E+01
   0.938E-12 0.875E-12 0.207E+04   -.151E-11 -.151E-11 -.206E+04   0.157E-22 0.792E-23 -.680E+01
   -.396E-13 0.185E-11 0.207E+04   0.157E-11 0.148E-11 -.206E+04   0.344E-23 -.145E-22 -.680E+01
   0.894E-12 -.117E-10 0.685E+03   0.149E-10 -.149E-10 -.685E+03   -.133E-22 -.557E-23 0.440E+00
   -.335E-13 0.387E-12 0.685E+03   -.149E-10 0.149E-10 -.685E+03   -.623E-23 -.629E-23 0.440E+00
   0.893E-12 0.728E-11 -.690E+03   0.152E-10 0.152E-10 0.690E+03   -.610E-23 0.879E-23 -.266E+00
   -.213E-13 0.552E-12 -.690E+03   -.152E-10 -.153E-10 0.690E+03   0.302E-24 0.117E-22 -.266E+00
   0.934E-12 -.815E-12 -.206E+04   0.284E-13 -.817E-13 0.205E+04   0.190E-23 -.186E-22 0.597E+01
   -.431E-13 0.754E-12 -.206E+04   -.570E-13 -.287E-13 0.205E+04   -.118E-22 0.156E-22 0.597E+01
   0.112E-12 -.977E-13 0.513E+03   -.746E-13 -.691E-14 -.513E+03   0.687E-23 0.357E-23 -.808E-01
   0.263E-12 -.357E-11 0.513E+03   -.311E-13 0.124E-13 -.513E+03   0.151E-22 0.651E-23 -.808E-01
   0.264E-13 0.323E-12 0.155E+04   -.546E-13 0.400E-14 -.156E+04   0.579E-23 0.147E-22 0.360E+01
   0.323E-12 0.175E-12 0.155E+04   -.282E-13 -.376E-14 -.156E+04   -.780E-23 -.198E-22 0.360E+01
   0.165E-13 0.943E-13 -.156E+04   0.711E-14 0.371E-13 0.157E+04   0.226E-23 0.423E-23 -.493E+01
   0.327E-12 -.268E-11 -.156E+04   -.827E-14 0.204E-13 0.157E+04   -.181E-22 -.349E-23 -.493E+01
   0.955E-13 -.438E-13 -.512E+03   0.426E-13 0.497E-13 0.512E+03   0.258E-24 -.112E-22 0.261E+00
   0.257E-12 -.180E-12 -.512E+03   0.345E-13 0.423E-13 0.512E+03   -.355E-23 -.940E-23 0.261E+00
   0.109E-12 0.146E-12 0.513E+03   -.142E-13 -.212E-13 -.513E+03   0.145E-22 -.693E-23 -.808E-01
   0.275E-12 0.233E-11 0.513E+03   -.842E-13 0.266E-14 -.513E+03   0.119E-22 0.107E-22 -.808E-01
   0.370E-13 0.916E-12 0.155E+04   -.280E-13 -.115E-13 -.156E+04   0.593E-23 0.995E-23 0.360E+01
   0.328E-12 0.525E-12 0.155E+04   -.770E-13 -.186E-13 -.156E+04   0.250E-24 0.152E-22 0.360E+01
   0.315E-13 0.404E-12 -.156E+04   0.284E-13 0.194E-13 0.157E+04   -.956E-24 0.429E-23 -.493E+01
   0.311E-12 0.186E-11 -.156E+04   -.285E-13 0.222E-13 0.157E+04   0.122E-22 0.506E-23 -.493E+01
   0.101E-12 -.101E-13 -.512E+03   0.213E-13 0.213E-13 0.512E+03   -.823E-23 0.829E-23 0.261E+00
   0.255E-12 0.875E-13 -.512E+03   0.501E-13 0.214E-13 0.512E+03   0.172E-22 -.243E-23 0.261E+00
   0.442E-12 -.825E-13 0.513E+03   -.213E-13 -.149E-13 -.513E+03   -.162E-23 0.864E-24 -.808E-01
   -.119E-13 -.539E-13 0.513E+03   -.978E-13 -.142E-13 -.513E+03   -.146E-22 0.175E-23 -.808E-01
   0.491E-12 0.112E-11 0.155E+04   -.102E-13 -.755E-14 -.156E+04   -.180E-23 -.438E-23 0.360E+01
   -.286E-13 0.148E-12 0.155E+04   -.603E-13 -.153E-13 -.156E+04   0.261E-22 0.738E-23 0.360E+01
   0.442E-12 0.808E-13 -.156E+04   -.275E-13 0.291E-13 0.157E+04   0.157E-22 0.184E-22 -.493E+01
   -.447E-13 0.256E-12 -.156E+04   -.146E-13 0.142E-13 0.157E+04   0.181E-22 0.616E-23 -.493E+01
   0.455E-12 -.260E-11 -.512E+03   0.711E-14 0.213E-13 0.512E+03   0.149E-23 -.188E-23 0.261E+00
   -.221E-13 -.184E-12 -.512E+03   -.565E-13 0.343E-13 0.512E+03   0.120E-23 -.717E-23 0.261E+00
   0.441E-12 0.689E-11 0.513E+03   -.128E-12 -.143E-13 -.513E+03   0.233E-23 -.977E-23 -.808E-01
   -.173E-13 0.271E-12 0.513E+03   -.707E-13 -.142E-13 -.513E+03   -.179E-22 -.334E-23 -.808E-01
   0.488E-12 -.315E-11 0.155E+04   -.506E-13 0.000E+00 -.156E+04   -.946E-23 -.944E-24 0.360E+01
   -.307E-13 0.525E-12 0.155E+04   -.426E-13 -.214E-13 -.156E+04   0.614E-23 0.609E-23 0.360E+01
   0.441E-12 -.714E-12 -.156E+04   -.497E-13 0.141E-13 0.157E+04   0.151E-23 -.267E-23 -.493E+01
   -.324E-13 0.700E-12 -.156E+04   0.721E-14 0.213E-13 0.157E+04   -.624E-24 -.167E-22 -.493E+01
   0.456E-12 -.704E-11 -.512E+03   0.142E-13 0.213E-13 0.512E+03   -.910E-24 0.636E-23 0.261E+00
   -.220E-13 0.256E-12 -.512E+03   0.140E-13 0.141E-13 0.512E+03   0.175E-22 -.567E-23 0.261E+00
 -----------------------------------------------------------------------------------------------
   0.203E-10 0.384E-11 0.144E+02   -.219E-12 -.178E-12 -.163E-10   0.149E-21 0.408E-22 -.144E+02


 POSITION                                       TOTAL-FORCE (eV/Angst)
 -----------------------------------------------------------------------------------
      2.11015      0.00000      7.50000        -0.000000     -0.000000      0.318426
      4.22029      2.11015      7.50000         0.000000     -0.000000      0.318426
      2.11015      2.11015      9.61015        -0.000000     -0.000000      0.030639
      4.22029      0.00000      9.61015         0.000000      0.000000      0.030639
      2.11015      0.00000     11.73102        -0.000000     -0.000000      0.006193
      4.22029      2.11015     11.73102         0.000000     -0.000000      0.006193
      2.11015      2.11015     13.82955         0.000000      0.000000      0.002882
      4.22029      0.00000     13.82955         0.000000      0.000000      0.002882
      2.11015      4.22029      7.50000         0.000000     -0.000000      0.318426
      4.22029      6.33044      7.50000         0.000000      0.000000      0.318426
      2.11015      6.33044      9.61015        -0.000000     -0.000000      0.030639
      4.22029      4.22029      9.61015        -0.000000     -0.000000      0.030639
      2.11015      4.22029     11.73102         0.000000      0.000000      0.006193
      4.22029      6.33044     11.73102        -0.000000     -0.000000      0.006193
      2.11015      6.33044     13.82955         0.000000      0.000000      0.002882
      4.22029      4.22029     13.82955         0.000000      0.000000      0.002882
      6.33044      0.00000      7.50000        -0.000000      0.000000      0.318426
      0.00000      2.11015      7.50000        -0.000000      0.000000      0.318426
      6.33044      2.11015      9.61015        -0.000000     -0.000000      0.030639
      0.00000      0.00000      9.61015        -0.000000      0.000000      0.030639
      6.33044      0.00000     11.73102         0.000000      0.000000      0.006193
      0.00000      2.11015     11.73102        -0.000000      0.000000      0.006193
      6.33044      2.11015     13.82955        -0.000000      0.000000      0.002882
      0.00000      0.00000     13.82955        -0.000000      0.000000      0.002882
      6.33044      4.22029      7.50000        -0.000000      0.000000      0.318426
      0.00000      6.33044      7.50000         0.000000      0.000000      0.318426
      6.33044      6.33044      9.61015        -0.000000      0.000000      0.030639
      0.00000      4.22029      9.61015        -0.000000     -0.000000      0.030639
      6.33044      4.22029     11.73102         0.000000     -0.000000      0.006193
      0.00000      6.33044     11.73102        -0.000000      0.000000      0.006193
      6.33044      6.33044     13.82955        -0.000000     -0.000000      0.002882
      0.00000      4.22029     13.82955        -0.000000      0.000000      0.002882
      2.11015      0.00000      9.61015         0.000000     -0.000000      0.052270
      4.22029      2.11015      9.61015         0.000000      0.000000      0.052270
      2.11015      2.11015      7.50000         0.000000      0.000000     -0.403146
      4.22029      0.00000      7.50000         0.000000      0.000000     -0.403146
      2.11015      0.00000     13.86857         0.000000     -0.000000     -0.002355
      4.22029      2.11015     13.86857         0.000000     -0.000000     -0.002355
      2.11015      2.11015     11.72550        -0.000000     -0.000000     -0.004910
      4.22029      0.00000     11.72550        -0.000000     -0.000000     -0.004910
      2.11015      4.22029      9.61015         0.000000      0.000000      0.052270
      4.22029      6.33044      9.61015         0.000000     -0.000000      0.052270
      2.11015      6.33044      7.50000         0.000000     -0.000000     -0.403146
      4.22029      4.22029      7.50000         0.000000      0.000000     -0.403146
      2.11015      4.22029     13.86857         0.000000     -0.000000     -0.002355
      4.22029      6.33044     13.86857         0.000000      0.000000     -0.002355
      2.11015      6.33044     11.72550        -0.000000      0.000000     -0.004910
      4.22029      4.22029     11.72550        -0.000000      0.000000     -0.004910
      6.33044      0.00000      9.61015         0.000000     -0.000000      0.052270
      0.00000      2.11015      9.61015         0.000000     -0.000000      0.052270
      6.33044      2.11015      7.50000         0.000000     -0.000000     -0.403146
      0.00000      0.00000      7.50000         0.000000     -0.000000     -0.403146
      6.33044      0.00000     13.86857         0.000000      0.000000     -0.002355
      0.00000      2.11015     13.86857         0.000000      0.000000     -0.002355
      6.33044      2.11015     11.72550        -0.000000      0.000000     -0.004910
      0.00000      0.00000     11.72550        -0.000000     -0.000000     -0.004910
      6.33044      4.22029      9.61015        -0.000000     -0.000000      0.052270
      0.00000      6.33044      9.61015        -0.000000     -0.000000      0.052270
      6.33044      6.33044      7.50000         0.000000      0.000000     -0.403146
      0.00000      4.22029      7.50000         0.000000     -0.000000     -0.403146
      6.33044      4.22029     13.86857         0.000000     -0.000000     -0.002355
      0.00000      6.33044     13.86857         0.000000      0.000000     -0.002355
      6.33044      6.33044     11.72550        -0.000000     -0.000000     -0.004910
      0.00000      4.22029     11.72550        -0.000000     -0.000000     -0.004910
 -----------------------------------------------------------------------------------
    total drift:                                0.000000      0.000000     -0.004039


--------------------------------------------------------------------------------------------------------



  FREE ENERGIE OF THE ION-ELECTRON SYSTEM (eV)
  ---------------------------------------------------
  free  energy   TOTEN  =      -264.83375599 eV

  energy  without entropy=     -264.83375599  energy(sigma->0) =     -264.83375599



--------------------------------------------------------------------------------------------------------


    POTLOK:  cpu time      0.3979: real time      0.3991


--------------------------------------------------------------------------------------------------------


     LOOP+:  cpu time     69.5586: real time     69.8873
    4ORBIT:  cpu time      0.0000: real time      0.0000

 total amount of memory used by VASP MPI-rank0   114954. kBytes
=======================================================================

   base      :      30000. kBytes
   nonl-proj :      42083. kBytes
   fftplans  :      14615. kBytes
   grid      :      20512. kBytes
   one-center:        259. kBytes
   wavefun   :       7485. kBytes



 General timing and accounting informations for this job:
 ========================================================

                  Total CPU time used (sec):       72.698
                            User time (sec):       71.833
                          System time (sec):        0.865
                         Elapsed time (sec):       73.721

                   Maximum memory used (kb):      488384.
                   Average memory used (kb):          N/A

                          Minor page faults:       120069
                          Major page faults:          100
                 Voluntary context switches:         1897
