 vasp.6.3.0 20Jan22 (build Mar 11 2022 13:48:16) complex

 executed on             LinuxIFC date 2023.12.26  18:03:27
 running on  304 total cores
 distrk:  each k-point on  304 cores,    1 groups
 distr:  one band on NCORE=   2 cores,  152 groups


--------------------------------------------------------------------------------------------------------


 INCAR:
   SYSTEM = MgO-rocksalt
   ISMEAR = 0
   SIGMA = 0.05
   EDIFF = 1E-6
   ALGO = ALL
   ISTART = 0
   IBRION = -1
   NSW = 0
   ISYM = 2
   ISIF = 2
   EDIFFG = -0.01
   DIPOL = 0.5 0.5 0.5
   IDIPOL = 3
   LDIPOL = .TRUE.
   GGA = PE
   IVDW = 1
   VDW_C6 = 1.75 0.70 0.63 0.70
   VDW_R0 = 1.452 1.342 1.243 1.342
   ENCUT = 600
   PREC = Accurate
   LASPH = .TRUE.
   LREAL = .FALSE.
   ISPIN = 1
   NELM = 200
   NELMIN = 8
   NCORE = 2
   KPAR = 1
   LWAVE = .FALSE.
   LCHARG = .FALSE.

 POTCAR:    PAW_PBE C 08Apr2002
 POTCAR:    PAW_PBE O 08Apr2002
 POTCAR:    PAW_PBE Mg_pv 13Apr2007
 POTCAR:    PAW_PBE O 08Apr2002
 -----------------------------------------------------------------------------
|                                                                             |
|           W    W    AA    RRRRR   N    N  II  N    N   GGGG   !!!           |
|           W    W   A  A   R    R  NN   N  II  NN   N  G    G  !!!           |
|           W    W  A    A  R    R  N N  N  II  N N  N  G       !!!           |
|           W WW W  AAAAAA  RRRRR   N  N N  II  N  N N  G  GGG   !            |
|           WW  WW  A    A  R   R   N   NN  II  N   NN  G    G                |
|           W    W  A    A  R    R  N    N  II  N    N   GGGG   !!!           |
|                                                                             |
|     For optimal performance we recommend to set                             |
|       NCORE = 2 up to number-of-cores-per-socket                            |
|     NCORE specifies how many cores store one orbital (NPAR=cpu/NCORE).      |
|     This setting can greatly improve the performance of VASP for DFT.       |
|     The default, NCORE=1 might be grossly inefficient on modern             |
|     multi-core architectures or massively parallel machines. Do your        |
|     own testing! More info at https://www.vasp.at/wiki/index.php/NCORE      |
|     Unfortunately you need to use the default for GW and RPA                |
|     calculations (for HF NCORE is supported but not extensively tested      |
|     yet).                                                                   |
|                                                                             |
 -----------------------------------------------------------------------------

 POTCAR:    PAW_PBE C 08Apr2002
   SHA256 =  253f7b50bb8d59471dbedb8285d89021f4a42ed1a2c5d38a03a736e69125dd95 C/POTCAR
   COPYR  = (c) Copyright 08Apr2002 Georg Kresse
   COPYR  = This file is part of the software VASP. Any use, copying, and all other rights are regul
   COPYR  = If you do not have a valid VASP license, you may not use, copy or distribute this file.
   VRHFIN =C: s2p2
   LEXCH  = PE
   EATOM  =   147.1560 eV,   10.8157 Ry

   TITEL  = PAW_PBE C 08Apr2002
   LULTRA =        F    use ultrasoft PP ?
   IUNSCR =        1    unscreen: 0-lin 1-nonlin 2-no
   RPACOR =    1.200    partial core radius
   POMASS =   12.011; ZVAL   =    4.000    mass and valenz
   RCORE  =    1.500    outmost cutoff radius
   RWIGS  =    1.630; RWIGS  =    0.863    wigner-seitz radius (au A)
   ENMAX  =  400.000; ENMIN  =  300.000 eV
   ICORE  =        2    local potential
   LCOR   =        T    correct aug charges
   LPAW   =        T    paw PP
   EAUG   =  644.873
   DEXC   =    0.000
   RMAX   =    1.529    core radius for proj-oper
   RAUG   =    1.300    factor for augmentation sphere
   RDEP   =    1.501    radius for radial grids
   RDEPT  =    1.300    core radius for aug-charge

   Atomic configuration
    4 entries
     n  l   j            E        occ.
     1  0  0.50      -273.3789   2.0000
     2  0  0.50       -13.7508   2.0000
     2  1  0.50        -5.2854   2.0000
     3  2  1.50        -5.4423   0.0000
   Description
     l       E           TYP  RCUT    TYP  RCUT
     0    -13.7508458     23  1.200
     0     -8.2022199     23  1.200
     1     -5.2854383     23  1.500
     1     34.0145650     23  1.500
     2     -5.4423304      7  1.500
  local pseudopotential read in
  partial core-charges read in
  partial kinetic energy density read in
  atomic valenz-charges read in
  non local Contribution for L=           0  read in
    real space projection operators read in
  non local Contribution for L=           0  read in
    real space projection operators read in
  non local Contribution for L=           1  read in
    real space projection operators read in
  non local Contribution for L=           1  read in
    real space projection operators read in
    PAW grid and wavefunctions read in

   number of l-projection  operators is LMAX  =           4
   number of lm-projection operators is LMMAX =           8

 POTCAR:    PAW_PBE O 08Apr2002
   SHA256 =  818f92134a0a090dccd8ba1447fa70422a3b330e708bb4f08108d8ae51209ddf O/POTCAR
   COPYR  = (c) Copyright 08Apr2002 Georg Kresse
   COPYR  = This file is part of the software VASP. Any use, copying, and all other rights are regul
   COPYR  = If you do not have a valid VASP license, you may not use, copy or distribute this file.
   VRHFIN =O: s2p4
   LEXCH  = PE
   EATOM  =   432.3788 eV,   31.7789 Ry

   TITEL  = PAW_PBE O 08Apr2002
   LULTRA =        F    use ultrasoft PP ?
   IUNSCR =        1    unscreen: 0-lin 1-nonlin 2-no
   RPACOR =    1.200    partial core radius
   POMASS =   16.000; ZVAL   =    6.000    mass and valenz
   RCORE  =    1.520    outmost cutoff radius
   RWIGS  =    1.550; RWIGS  =    0.820    wigner-seitz radius (au A)
   ENMAX  =  400.000; ENMIN  =  300.000 eV
   ICORE  =        2    local potential
   LCOR   =        T    correct aug charges
   LPAW   =        T    paw PP
   EAUG   =  605.392
   DEXC   =    0.000
   RMAX   =    1.553    core radius for proj-oper
   RAUG   =    1.300    factor for augmentation sphere
   RDEP   =    1.550    radius for radial grids
   RDEPT  =    1.329    core radius for aug-charge

   Atomic configuration
    4 entries
     n  l   j            E        occ.
     1  0  0.50      -514.6923   2.0000
     2  0  0.50       -23.9615   2.0000
     2  1  0.50        -9.0305   4.0000
     3  2  1.50        -9.5241   0.0000
   Description
     l       E           TYP  RCUT    TYP  RCUT
     0    -23.9615318     23  1.200
     0     -9.5240782     23  1.200
     1     -9.0304911     23  1.520
     1      8.1634956     23  1.520
     2     -9.5240782      7  1.500
  local pseudopotential read in
  partial core-charges read in
  partial kinetic energy density read in
  kinetic energy density of atom read in
  atomic valenz-charges read in
  non local Contribution for L=           0  read in
    real space projection operators read in
  non local Contribution for L=           0  read in
    real space projection operators read in
  non local Contribution for L=           1  read in
    real space projection operators read in
  non local Contribution for L=           1  read in
    real space projection operators read in
    PAW grid and wavefunctions read in

   number of l-projection  operators is LMAX  =           4
   number of lm-projection operators is LMMAX =           8

 POTCAR:    PAW_PBE Mg_pv 13Apr2007
   SHA256 =  f474ac0dd33840b9ae76c01d57fea79fdf77cdfbb07d5ade72c65f83c709b62b Mg_pv/POTCAR
   COPYR  = (c) Copyright 13Apr2007 Georg Kresse
   COPYR  = This file is part of the software VASP. Any use, copying, and all other rights are regul
   COPYR  = If you do not have a valid VASP license, you may not use, copy or distribute this file.
   VRHFIN =Mg: p6s2
   LEXCH  = PE
   EATOM  =  1056.7344 eV,   77.6678 Ry

   TITEL  = PAW_PBE Mg_pv 13Apr2007
   LULTRA =        F    use ultrasoft PP ?
   IUNSCR =        1    unscreen: 0-lin 1-nonlin 2-no
   RPACOR =    1.500    partial core radius
   POMASS =   24.305; ZVAL   =    8.000    mass and valenz
   RCORE  =    2.000    outmost cutoff radius
   RWIGS  =    2.000; RWIGS  =    1.058    wigner-seitz radius (au A)
   ENMAX  =  403.929; ENMIN  =  302.947 eV
   RCLOC  =    1.506    cutoff for local pot
   LCOR   =        T    correct aug charges
   LPAW   =        T    paw PP
   EAUG   =  758.780
   DEXC   =    0.000
   RMAX   =    2.045    core radius for proj-oper
   RAUG   =    1.300    factor for augmentation sphere
   RDEP   =    2.025    radius for radial grids
   RDEPT  =    1.557    core radius for aug-charge

   Atomic configuration
    5 entries
     n  l   j            E        occ.
     1  0  0.50     -1259.6230   2.0000
     2  0  0.50       -79.8442   2.0000
     2  1  1.50       -46.6121   6.0000
     3  0  0.50        -4.7055   2.0000
     3  2  1.50        -1.3606   0.0000
   Description
     l       E           TYP  RCUT    TYP  RCUT
     1    -46.6121073     23  1.600
     1      2.7211652     23  1.600
     0     -4.7054661     23  2.000
     0     61.2262170     23  2.000
     2     -1.3605826     23  2.000
  local pseudopotential read in
  partial core-charges read in
  partial kinetic energy density read in
  atomic valenz-charges read in
  non local Contribution for L=           1  read in
    real space projection operators read in
  non local Contribution for L=           1  read in
    real space projection operators read in
  non local Contribution for L=           0  read in
    real space projection operators read in
  non local Contribution for L=           0  read in
    real space projection operators read in
  non local Contribution for L=           2  read in
    real space projection operators read in
    PAW grid and wavefunctions read in

   number of l-projection  operators is LMAX  =           5
   number of lm-projection operators is LMMAX =          13

 POTCAR:    PAW_PBE O 08Apr2002
   SHA256 =  818f92134a0a090dccd8ba1447fa70422a3b330e708bb4f08108d8ae51209ddf O/POTCAR
   COPYR  = (c) Copyright 08Apr2002 Georg Kresse
   COPYR  = This file is part of the software VASP. Any use, copying, and all other rights are regul
   COPYR  = If you do not have a valid VASP license, you may not use, copy or distribute this file.
   VRHFIN =O: s2p4
   LEXCH  = PE
   EATOM  =   432.3788 eV,   31.7789 Ry

   TITEL  = PAW_PBE O 08Apr2002
   LULTRA =        F    use ultrasoft PP ?
   IUNSCR =        1    unscreen: 0-lin 1-nonlin 2-no
   RPACOR =    1.200    partial core radius
   POMASS =   16.000; ZVAL   =    6.000    mass and valenz
   RCORE  =    1.520    outmost cutoff radius
   RWIGS  =    1.550; RWIGS  =    0.820    wigner-seitz radius (au A)
   ENMAX  =  400.000; ENMIN  =  300.000 eV
   ICORE  =        2    local potential
   LCOR   =        T    correct aug charges
   LPAW   =        T    paw PP
   EAUG   =  605.392
   DEXC   =    0.000
   RMAX   =    1.553    core radius for proj-oper
   RAUG   =    1.300    factor for augmentation sphere
   RDEP   =    1.550    radius for radial grids
   RDEPT  =    1.329    core radius for aug-charge

   Atomic configuration
    4 entries
     n  l   j            E        occ.
     1  0  0.50      -514.6923   2.0000
     2  0  0.50       -23.9615   2.0000
     2  1  0.50        -9.0305   4.0000
     3  2  1.50        -9.5241   0.0000
   Description
     l       E           TYP  RCUT    TYP  RCUT
     0    -23.9615318     23  1.200
     0     -9.5240782     23  1.200
     1     -9.0304911     23  1.520
     1      8.1634956     23  1.520
     2     -9.5240782      7  1.500
  local pseudopotential read in
  partial core-charges read in
  partial kinetic energy density read in
  kinetic energy density of atom read in
  atomic valenz-charges read in
  non local Contribution for L=           0  read in
    real space projection operators read in
  non local Contribution for L=           0  read in
    real space projection operators read in
  non local Contribution for L=           1  read in
    real space projection operators read in
  non local Contribution for L=           1  read in
    real space projection operators read in
    PAW grid and wavefunctions read in

   number of l-projection  operators is LMAX  =           4
   number of lm-projection operators is LMMAX =           8

 -----------------------------------------------------------------------------
|                                                                             |
|               ----> ADVICE to this user running VASP <----                  |
|                                                                             |
|     You have a (more or less) 'large supercell' and for larger cells it     |
|     might be more efficient to use real-space projection operators.         |
|     Therefore, try LREAL= Auto in the INCAR file.                           |
|     Mind: For very accurate calculation, you might also keep the            |
|     reciprocal projection scheme (i.e. LREAL=.FALSE.).                      |
|                                                                             |
 -----------------------------------------------------------------------------

  PAW_PBE C 08Apr2002                   :
 energy of atom  1       EATOM= -147.1560
 kinetic energy error for atom=    0.0057 (will be added to EATOM!!)
  PAW_PBE O 08Apr2002                   :
 energy of atom  2       EATOM= -432.3788
 kinetic energy error for atom=    0.0168 (will be added to EATOM!!)
  PAW_PBE Mg_pv 13Apr2007               :
 energy of atom  3       EATOM=-1056.7344
 kinetic energy error for atom=    0.0221 (will be added to EATOM!!)
  PAW_PBE O 08Apr2002                   :
 energy of atom  4       EATOM= -432.3788
 kinetic energy error for atom=    0.0168 (will be added to EATOM!!)


 POSCAR:  C  O Mg  O
  positions in direct lattice
  velocities in cartesian coordinates
 exchange correlation table for  LEXCH =        8
   RHO(1)=    0.500       N(1)  =     2000
   RHO(2)=  100.500       N(2)  =     4000



--------------------------------------------------------------------------------------------------------


 ion  position               nearest neighbor table
   1  0.500  0.500  0.764-   2 1.14
   2  0.500  0.500  0.818-   1 1.14
   3  0.250  0.000  0.351-  35 2.12  37 2.12  38 2.12  45 2.12  54 2.12
   4  0.500  0.250  0.351-  36 2.12  37 2.12  38 2.12  46 2.12  53 2.12
   5  0.250  0.250  0.450-  37 2.12  36 2.12  35 2.12  43 2.12  52 2.12  41 2.12
   6  0.500  0.000  0.450-  38 2.12  36 2.12  35 2.12  44 2.12  51 2.12  42 2.12
   7  0.250  0.000  0.550-  42 2.12  41 2.12  49 2.12  58 2.12  35 2.13  39 2.15
   8  0.500  0.251  0.550-  50 2.11  41 2.12  57 2.12  42 2.12  36 2.13  40 2.15
   9  0.250  0.250  0.648-  41 2.10  39 2.11  56 2.11  47 2.12  40 2.12
  10  0.500  0.000  0.648-  42 2.10  40 2.11  48 2.11  39 2.12  55 2.12
  11  0.250  0.500  0.351-  43 2.12  37 2.12  45 2.12  46 2.12  62 2.12
  12  0.500  0.750  0.351-  44 2.12  38 2.12  45 2.12  46 2.12  61 2.12
  13  0.250  0.750  0.450-  45 2.12  43 2.12  44 2.12  35 2.12  60 2.12  49 2.12
  14  0.500  0.500  0.450-  46 2.12  43 2.12  44 2.12  36 2.12  59 2.12  50 2.13
  15  0.251  0.500  0.550-  50 2.11  49 2.12  41 2.12  66 2.12  43 2.13  47 2.15
  16  0.500  0.749  0.550-  50 2.11  49 2.12  65 2.12  42 2.12  44 2.13  48 2.15
  17  0.250  0.750  0.648-  49 2.10  39 2.11  64 2.11  47 2.12  48 2.12
  18  0.500  0.500  0.651-  40 2.13  47 2.13  48 2.13  63 2.13  50 2.15
  19  0.750  0.000  0.351-  51 2.12  38 2.12  53 2.12  54 2.12  61 2.12
  20  0.000  0.250  0.351-  52 2.12  37 2.12  53 2.12  54 2.12  62 2.12
  21  0.750  0.250  0.450-  53 2.12  51 2.12  52 2.12  36 2.12  59 2.12  57 2.12
  22  0.000  0.000  0.450-  54 2.12  51 2.12  52 2.12  35 2.12  60 2.12  58 2.12
  23  0.750  0.000  0.550-  42 2.12  57 2.12  65 2.12  58 2.12  51 2.13  55 2.15
  24  0.000  0.250  0.550-  66 2.12  57 2.12  41 2.12  58 2.12  52 2.13  56 2.15
  25  0.750  0.250  0.648-  57 2.10  56 2.11  55 2.11  40 2.12  63 2.12
  26  0.000  0.000  0.648-  58 2.11  55 2.11  56 2.11  39 2.11  64 2.11
  27  0.750  0.500  0.351-  59 2.12  53 2.12  46 2.12  61 2.12  62 2.12
  28  0.000  0.750  0.351-  60 2.12  54 2.12  45 2.12  61 2.12  62 2.12
  29  0.750  0.750  0.450-  61 2.12  51 2.12  59 2.12  60 2.12  44 2.12  65 2.12
  30  0.000  0.500  0.450-  62 2.12  52 2.12  59 2.12  60 2.12  43 2.12  66 2.12
  31  0.749  0.500  0.550-  50 2.11  57 2.12  65 2.12  66 2.12  59 2.13  63 2.15
  32  0.000  0.750  0.550-  66 2.12  65 2.12  49 2.12  58 2.12  60 2.13  64 2.15
  33  0.750  0.750  0.648-  65 2.10  64 2.11  55 2.11  48 2.12  63 2.12
  34  0.000  0.500  0.648-  66 2.10  63 2.11  47 2.11  64 2.12  56 2.12
  35  0.250  0.000  0.450-   3 2.12   5 2.12   6 2.12  13 2.12  22 2.12   7 2.13
  36  0.500  0.250  0.450-   4 2.12   5 2.12   6 2.12  14 2.12  21 2.12   8 2.13
  37  0.250  0.250  0.351-   5 2.12   4 2.12   3 2.12  11 2.12  20 2.12
  38  0.500  0.000  0.351-   6 2.12   4 2.12   3 2.12  12 2.12  19 2.12
  39  0.250  0.000  0.651-   9 2.11  17 2.11  26 2.11  10 2.12   7 2.15
  40  0.500  0.249  0.651-  10 2.11   9 2.12  25 2.12  18 2.13   8 2.15
  41  0.250  0.250  0.550-   9 2.10   7 2.12  24 2.12  15 2.12   8 2.12   5 2.12
  42  0.500  0.000  0.550-  10 2.10   7 2.12  23 2.12   6 2.12  16 2.12   8 2.12
  43  0.250  0.500  0.450-  11 2.12   5 2.12  13 2.12  14 2.12  30 2.12  15 2.13
  44  0.500  0.750  0.450-  12 2.12   6 2.12  13 2.12  14 2.12  29 2.12  16 2.13
  45  0.250  0.750  0.351-  13 2.12  11 2.12  12 2.12   3 2.12  28 2.12
  46  0.500  0.500  0.351-  14 2.12  11 2.12  12 2.12   4 2.12  27 2.12
  47  0.249  0.500  0.651-  34 2.11  17 2.12   9 2.12  18 2.13  15 2.15
  48  0.500  0.751  0.651-  10 2.11  17 2.12  33 2.12  18 2.13  16 2.15
  49  0.250  0.750  0.550-  17 2.10   7 2.12  32 2.12  15 2.12  16 2.12  13 2.12
  50  0.500  0.500  0.550-   8 2.11  15 2.11  16 2.11  31 2.11  14 2.13  18 2.15
  51  0.750  0.000  0.450-  19 2.12   6 2.12  21 2.12  22 2.12  29 2.12  23 2.13
  52  0.000  0.250  0.450-  20 2.12   5 2.12  21 2.12  22 2.12  30 2.12  24 2.13
  53  0.750  0.250  0.351-  21 2.12  19 2.12  20 2.12   4 2.12  27 2.12
  54  0.000  0.000  0.351-  22 2.12  19 2.12  20 2.12   3 2.12  28 2.12
  55  0.750  0.000  0.651-  25 2.11  33 2.11  26 2.11  10 2.12  23 2.15
  56  0.000  0.250  0.651-   9 2.11  25 2.11  26 2.11  34 2.12  24 2.15
  57  0.750  0.250  0.550-  25 2.10  24 2.12  23 2.12   8 2.12  31 2.12  21 2.12
  58  0.000  0.000  0.550-  26 2.11  23 2.12  24 2.12   7 2.12  32 2.12  22 2.12
  59  0.750  0.500  0.450-  27 2.12  21 2.12  14 2.12  29 2.12  30 2.12  31 2.13
  60  0.000  0.750  0.450-  28 2.12  22 2.12  13 2.12  29 2.12  30 2.12  32 2.13
  61  0.750  0.750  0.351-  29 2.12  19 2.12  27 2.12  28 2.12  12 2.12
  62  0.000  0.500  0.351-  30 2.12  20 2.12  27 2.12  28 2.12  11 2.12
  63  0.751  0.500  0.651-  34 2.11  33 2.12  25 2.12  18 2.13  31 2.15
  64  0.000  0.750  0.651-  17 2.11  33 2.11  26 2.11  34 2.12  32 2.15
  65  0.750  0.750  0.550-  33 2.10  32 2.12  23 2.12  16 2.12  31 2.12  29 2.12
  66  0.000  0.500  0.550-  34 2.10  32 2.12  24 2.12  30 2.12  15 2.12  31 2.12

  LATTYP: Found a simple tetragonal cell.
 ALAT       =     8.4671426306
 C/A-ratio  =     2.5215539532

  Lattice vectors:

 A1 = (   8.4671426306,   0.0000000000,   0.0000000000)
 A2 = (   0.0000000000,   8.4671426306,   0.0000000000)
 A3 = (   0.0000000000,   0.0000000000,  21.3503569730)


Analysis of symmetry for initial positions (statically):
=====================================================================
 Subroutine PRICEL returns:
 Original cell was already a primitive cell.


 Routine SETGRP: Setting up the symmetry group for a
 simple tetragonal supercell.


 Subroutine GETGRP returns: Found  8 space group operations
 (whereof  8 operations were pure point group operations)
 out of a pool of 16 trial point group operations.


The static configuration has the point symmetry C_4v.


Analysis of symmetry for dynamics (positions and initial velocities):
=====================================================================
 Subroutine PRICEL returns:
 Original cell was already a primitive cell.


 Routine SETGRP: Setting up the symmetry group for a
 simple tetragonal supercell.


 Subroutine GETGRP returns: Found  8 space group operations
 (whereof  8 operations were pure point group operations)
 out of a pool of 16 trial point group operations.


The dynamic configuration has the point symmetry C_4v.


Analysis of constrained symmetry for selective dynamics:
=====================================================================
 Subroutine PRICEL returns:
 Original cell was already a primitive cell.


 Routine SETGRP: Setting up the symmetry group for a
 simple tetragonal supercell.


 Subroutine GETGRP returns: Found  8 space group operations
 (whereof  8 operations were pure point group operations)
 out of a pool of 16 trial point group operations.


The constrained configuration has the point symmetry C_4v.


 Subroutine INISYM returns: Found  8 space group operations
 (whereof  8 operations are pure point group operations),
 and found     1 'primitive' translations


----------------------------------------------------------------------------------------

                                     Primitive cell

  volume of cell :    1530.6606

  direct lattice vectors                    reciprocal lattice vectors
     8.467142631  0.000000000  0.000000000     0.118103597  0.000000000  0.000000000
     0.000000000  8.467142631  0.000000000     0.000000000  0.118103597  0.000000000
     0.000000000  0.000000000 21.350356973     0.000000000  0.000000000  0.046837624

  length of vectors
     8.467142631  8.467142631 21.350356973     0.118103597  0.118103597  0.046837624

  position of ions in fractional coordinates (direct lattice)
     0.500000000  0.500000000  0.764079771
     0.500000000  0.500000000  0.817635679
     0.250000000  0.000000000  0.351282183
     0.500000000  0.250000000  0.351282183
     0.250000000  0.250000000  0.450427394
     0.500000000  0.000000000  0.450427394
     0.250130675  0.000000000  0.550051025
     0.500000000  0.250549374  0.550337361
     0.249664725  0.249664725  0.648233062
     0.500000000  0.000000000  0.648327315
     0.250000000  0.500000000  0.351282183
     0.500000000  0.750000000  0.351282183
     0.250000000  0.750000000  0.450427394
     0.500000000  0.500000000  0.450427394
     0.250549374  0.500000000  0.550337361
     0.500000000  0.749450626  0.550337361
     0.249664725  0.750335275  0.648233062
     0.500000000  0.500000000  0.651025884
     0.750000000  0.000000000  0.351282183
     0.000000000  0.250000000  0.351282183
     0.750000000  0.250000000  0.450427394
     0.000000000  0.000000000  0.450427394
     0.749869325  0.000000000  0.550051025
     0.000000000  0.250130675  0.550051025
     0.750335275  0.249664725  0.648233062
     0.000000000  0.000000000  0.648316240
     0.750000000  0.500000000  0.351282183
     0.000000000  0.750000000  0.351282183
     0.750000000  0.750000000  0.450427394
     0.000000000  0.500000000  0.450427394
     0.749450626  0.500000000  0.550337361
     0.000000000  0.749869325  0.550051025
     0.750335275  0.750335275  0.648233062
     0.000000000  0.500000000  0.648327315
     0.250000000  0.000000000  0.450427394
     0.500000000  0.250000000  0.450427394
     0.250000000  0.250000000  0.351282183
     0.500000000  0.000000000  0.351282183
     0.249675969  0.000000000  0.650693757
     0.500000000  0.248616374  0.650874873
     0.249995626  0.249995626  0.549815020
     0.500000000  0.000000000  0.549743658
     0.250000000  0.500000000  0.450427394
     0.500000000  0.750000000  0.450427394
     0.250000000  0.750000000  0.351282183
     0.500000000  0.500000000  0.351282183
     0.248616374  0.500000000  0.650874873
     0.500000000  0.751383626  0.650874873
     0.249995626  0.750004374  0.549815020
     0.500000000  0.500000000  0.550361408
     0.750000000  0.000000000  0.450427394
     0.000000000  0.250000000  0.450427394
     0.750000000  0.250000000  0.351282183
     0.000000000  0.000000000  0.351282183
     0.750324031  0.000000000  0.650693757
     0.000000000  0.249675969  0.650693757
     0.750004374  0.249995626  0.549815020
     0.000000000  0.000000000  0.549710877
     0.750000000  0.500000000  0.450427394
     0.000000000  0.750000000  0.450427394
     0.750000000  0.750000000  0.351282183
     0.000000000  0.500000000  0.351282183
     0.751383626  0.500000000  0.650874873
     0.000000000  0.750324031  0.650693757
     0.750004374  0.750004374  0.549815020
     0.000000000  0.500000000  0.549743658

  ion indices of the primitive-cell ions
   primitive index   ion index
                 1           1
                 2           2
                 3           3
                 4           4
                 5           5
                 6           6
                 7           7
                 8           8
                 9           9
                10          10
                11          11
                12          12
                13          13
                14          14
                15          15
                16          16
                17          17
                18          18
                19          19
                20          20
                21          21
                22          22
                23          23
                24          24
                25          25
                26          26
                27          27
                28          28
                29          29
                30          30
                31          31
                32          32
                33          33
                34          34
                35          35
                36          36
                37          37
                38          38
                39          39
                40          40
                41          41
                42          42
                43          43
                44          44
                45          45
                46          46
                47          47
                48          48
                49          49
                50          50
                51          51
                52          52
                53          53
                54          54
                55          55
                56          56
                57          57
                58          58
                59          59
                60          60
                61          61
                62          62
                63          63
                64          64
                65          65
                66          66

----------------------------------------------------------------------------------------



 KPOINTS: pymatgen v2020.8.13 with grid density =

Automatic generation of k-mesh.
 Grid dimensions read from file:
 generate k-points for:    2    2    1

 Generating k-lattice:

  Cartesian coordinates                     Fractional coordinates (reciprocal lattice)
     0.059051798  0.000000000  0.000000000     0.500000000  0.000000000  0.000000000
     0.000000000  0.059051798  0.000000000     0.000000000  0.500000000  0.000000000
     0.000000000  0.000000000  0.046837624     0.000000000  0.000000000  1.000000000

  Length of vectors
     0.059051798  0.059051798  0.046837624

  Shift w.r.t. Gamma in fractional coordinates (k-lattice)
     0.000000000  0.000000000  0.000000000


 Subroutine IBZKPT returns following result:
 ===========================================

 Found      3 irreducible k-points:

 Following reciprocal coordinates:
            Coordinates               Weight
  0.000000  0.000000  0.000000      1.000000
  0.500000  0.000000  0.000000      2.000000
  0.500000  0.500000  0.000000      1.000000

 Following cartesian coordinates:
            Coordinates               Weight
  0.000000  0.000000  0.000000      1.000000
  0.059052  0.000000  0.000000      2.000000
  0.059052  0.059052  0.000000      1.000000



--------------------------------------------------------------------------------------------------------




 Dimension of arrays:
   k-points           NKPTS =      3   k-points in BZ     NKDIM =      3   number of bands    NBANDS=    304
   number of dos      NEDOS =    301   number of ions     NIONS =     66
   non local maximal  LDIM  =      5   non local SUM 2l+1 LMDIM =     13
   total plane-waves  NPLWV = 882000
   max r-space proj   IRMAX =      1   max aug-charges    IRDMAX=  11554
   dimension x,y,z NGX =    70 NGY =   70 NGZ =  180
   dimension x,y,z NGXF=   140 NGYF=  140 NGZF=  360
   support grid    NGXF=   140 NGYF=  140 NGZF=  360
   ions per type =               1   1  32  32
   NGX,Y,Z   is equivalent  to a cutoff of  13.74, 13.74, 14.02 a.u.
   NGXF,Y,Z  is equivalent  to a cutoff of  27.49, 27.49, 28.03 a.u.

 SYSTEM =  MgO-rocksalt
 POSCAR =   C  O Mg  O

 Startparameter for this run:
   NWRITE =      2    write-flag & timer
   PREC   = accura    normal or accurate (medium, high low for compatibility)
   ISTART =      0    job   : 0-new  1-cont  2-samecut
   ICHARG =      2    charge: 1-file 2-atom 10-const
   ISPIN  =      1    spin polarized calculation?
   LNONCOLLINEAR =      F non collinear calculations
   LSORBIT =      F    spin-orbit coupling
   INIWAV =      1    electr: 0-lowe 1-rand  2-diag
   LASPH  =      T    aspherical Exc in radial PAW
 Electronic Relaxation 1
   ENCUT  =  600.0 eV  44.10 Ry    6.64 a.u.  16.91 16.91 42.64*2*pi/ulx,y,z
   ENINI  =  600.0     initial cutoff
   ENAUG  =  758.8 eV  augmentation charge cutoff
   NELM   =    200;   NELMIN=  8; NELMDL= -5     # of ELM steps
   EDIFF  = 0.1E-05   stopping-criterion for ELM
   LREAL  =      F    real-space projection
   NLSPLINE    = F    spline interpolate recip. space projectors
   LCOMPAT=      F    compatible to vasp.4.4
   GGA_COMPAT  = T    GGA compatible to vasp.4.4-vasp.4.6
   LMAXPAW     = -100 max onsite density
   LMAXMIX     =    2 max onsite mixed and CHGCAR
   VOSKOWN=      0    Vosko Wilk Nusair interpolation
   ROPT   =    0.00000   0.00000   0.00000   0.00000
 Ionic relaxation
   EDIFFG = -.1E-01   stopping-criterion for IOM
   NSW    =      0    number of steps for IOM
   NBLOCK =      1;   KBLOCK =      1    inner block; outer block
   IBRION =     -1    ionic relax: 0-MD 1-quasi-New 2-CG
   NFREE  =      0    steps in history (QN), initial steepest desc. (CG)
   ISIF   =      2    stress and relaxation
   IWAVPR =     10    prediction:  0-non 1-charg 2-wave 3-comb
   ISYM   =      2    0-nonsym 1-usesym 2-fastsym
   LCORR  =      T    Harris-Foulkes like correction to forces

   POTIM  = 0.5000    time-step for ionic-motion
   TEIN   =    0.0    initial temperature
   TEBEG  =    0.0;   TEEND  =   0.0 temperature during run
   SMASS  =  -3.00    Nose mass-parameter (am)
   estimated Nose-frequenzy (Omega)   =  0.10E-29 period in steps = 0.13E+47 mass=  -0.164E-26a.u.
   SCALEE = 1.0000    scale energy and forces
   NPACO  =    256;   APACO  = 10.0  distance and # of slots for P.C.
   PSTRESS=    0.0 pullay stress

  Mass of Ions in am
   POMASS =  12.01 16.00 24.30 16.00
  Ionic Valenz
   ZVAL   =   4.00  6.00  8.00  6.00
  Atomic Wigner-Seitz radii
   RWIGS  =  -1.00 -1.00 -1.00 -1.00
  virtual crystal weights
   VCA    =   1.00  1.00  1.00  1.00
   NELECT =     458.0000    total number of electrons
   NUPDOWN=      -1.0000    fix difference up-down

 DOS related values:
   EMIN   =  10.00;   EMAX   =-10.00  energy-range for DOS
   EFERMI =   0.00
   ISMEAR =     0;   SIGMA  =   0.05  broadening in eV -4-tet -1-fermi 0-gaus

 Electronic relaxation 2 (details)
   IALGO  =     58    algorithm
   LDIAG  =      T    sub-space diagonalisation (order eigenvalues)
   LSUBROT=      F    optimize rotation matrix (better conditioning)
   TURBO    =      0    0=normal 1=particle mesh
   IRESTART =      0    0=no restart 2=restart with 2 vectors
   NREBOOT  =      0    no. of reboots
   NMIN     =      0    reboot dimension
   EREF     =   0.00    reference energy to select bands
   IMIX   =      4    mixing-type and parameters
     AMIX     =   0.40;   BMIX     =  1.00
     AMIX_MAG =   1.60;   BMIX_MAG =  1.00
     AMIN     =   0.10
     WC   =   100.;   INIMIX=   1;  MIXPRE=   1;  MAXMIX= -45

 Intra band minimization:
   WEIMIN = 0.0000     energy-eigenvalue tresh-hold
   EBREAK =  0.82E-09  absolut break condition
   DEPER  =   0.30     relativ break condition

   TIME   =   0.40     timestep for ELM

  volume/ion in A,a.u.               =      23.19       156.51
  Fermi-wavevector in a.u.,A,eV,Ry     =   1.094974  2.069200 16.312942  1.198967
  Thomas-Fermi vector in A             =   2.231289

 Write flags
   LWAVE        =      F    write WAVECAR
   LDOWNSAMPLE  =      F    k-point downsampling of WAVECAR
   LCHARG       =      F    write CHGCAR
   LVTOT        =      F    write LOCPOT, total local potential
   LVHAR        =      F    write LOCPOT, Hartree potential only
   LELF         =      F    write electronic localiz. function (ELF)
   LORBIT       =      0    0 simple, 1 ext, 2 COOP (PROOUT), +10 PAW based schemes


 Dipole corrections
   LMONO  =      F    monopole corrections only (constant potential shift)
   LDIPOL =      T    correct potential (dipole corrections)
   IDIPOL =      3    1-x, 2-y, 3-z, 4-all directions
   EPSILON=  1.0000000 bulk dielectric constant

 Exchange correlation treatment:
   GGA     =    PE    GGA type
   LEXCH   =     8    internal setting for exchange type
   LIBXC   =     F    Libxc
   VOSKOWN =     0    Vosko Wilk Nusair interpolation
   LHFCALC =     F    Hartree Fock is set to
   LHFONE  =     F    Hartree Fock one center treatment
   AEXX    =    0.0000 exact exchange contribution

 Linear response parameters
   LEPSILON=     F    determine dielectric tensor
   LRPA    =     F    only Hartree local field effects (RPA)
   LNABLA  =     F    use nabla operator in PAW spheres
   LVEL    =     F    velocity operator in full k-point grid
   CSHIFT  =0.1000    complex shift for real part using Kramers Kronig
   OMEGAMAX=  -1.0    maximum frequency
   DEG_THRESHOLD= 0.2000000E-02 threshold for treating states as degnerate
   RTIME   =   -0.100 relaxation time in fs
  (WPLASMAI=    0.000 imaginary part of plasma frequency in eV, 0.658/RTIME)
   DFIELD  = 0.0000000 0.0000000 0.0000000 field for delta impulse in time

  Optional k-point grid parameters
   LKPOINTS_OPT  =     F    use optional k-point grid
   KPOINTS_OPT_MODE=     1    mode for optional k-point grid

 Orbital magnetization related:
   ORBITALMAG=     F  switch on orbital magnetization
   LCHIMAG   =     F  perturbation theory with respect to B field
   DQ        =  0.001000  dq finite difference perturbation B field
   LLRAUG    =     F  two centre corrections for induced B field



--------------------------------------------------------------------------------------------------------


 Static calculation
 charge density and potential will be updated during run
 non-spin polarized calculation
 Conjugate gradient for all bands (Freysoldt, et al. PRB 79, 241103 (2009))
 preconditioned conjugated gradient
 perform sub-space diagonalisation
    before iterative eigenvector-optimisation
 modified Broyden-mixing scheme, WC =      100.0
 initial mixing is a Kerker type mixing with AMIX =  0.4000 and BMIX =      1.0000
 Hartree-type preconditioning will be used
 using additional bands           75
 reciprocal scheme for non local part
 use partial core corrections
 no Harris-corrections to forces
 use gradient corrections
 use of overlap-Matrix (Vanderbilt PP)
 Gauss-broadening in eV      SIGMA  =   0.05


--------------------------------------------------------------------------------------------------------


  energy-cutoff  :      600.00
  volume of cell :     1530.66
      direct lattice vectors                 reciprocal lattice vectors
     8.467142631  0.000000000  0.000000000     0.118103597  0.000000000  0.000000000
     0.000000000  8.467142631  0.000000000     0.000000000  0.118103597  0.000000000
     0.000000000  0.000000000 21.350356973     0.000000000  0.000000000  0.046837624

  length of vectors
     8.467142631  8.467142631 21.350356973     0.118103597  0.118103597  0.046837624



 k-points in units of 2pi/SCALE and weight: pymatgen v2020.8.13 with grid density =
   0.00000000  0.00000000  0.00000000       0.250
   0.05905180  0.00000000  0.00000000       0.500
   0.05905180  0.05905180  0.00000000       0.250

 k-points in reciprocal lattice and weights: pymatgen v2020.8.13 with grid density =
   0.00000000  0.00000000  0.00000000       0.250
   0.50000000  0.00000000  0.00000000       0.500
   0.50000000  0.50000000  0.00000000       0.250

 position of ions in fractional coordinates (direct lattice)
   0.50000000  0.50000000  0.76407977
   0.50000000  0.50000000  0.81763568
   0.25000000  0.00000000  0.35128218
   0.50000000  0.25000000  0.35128218
   0.25000000  0.25000000  0.45042739
   0.50000000  0.00000000  0.45042739
   0.25013068  0.00000000  0.55005102
   0.50000000  0.25054937  0.55033736
   0.24966473  0.24966473  0.64823306
   0.50000000  0.00000000  0.64832732
   0.25000000  0.50000000  0.35128218
   0.50000000  0.75000000  0.35128218
   0.25000000  0.75000000  0.45042739
   0.50000000  0.50000000  0.45042739
   0.25054937  0.50000000  0.55033736
   0.50000000  0.74945063  0.55033736
   0.24966473  0.75033527  0.64823306
   0.50000000  0.50000000  0.65102588
   0.75000000  0.00000000  0.35128218
   0.00000000  0.25000000  0.35128218
   0.75000000  0.25000000  0.45042739
   0.00000000  0.00000000  0.45042739
   0.74986932  0.00000000  0.55005102
   0.00000000  0.25013068  0.55005102
   0.75033527  0.24966473  0.64823306
   0.00000000  0.00000000  0.64831624
   0.75000000  0.50000000  0.35128218
   0.00000000  0.75000000  0.35128218
   0.75000000  0.75000000  0.45042739
   0.00000000  0.50000000  0.45042739
   0.74945063  0.50000000  0.55033736
   0.00000000  0.74986932  0.55005102
   0.75033527  0.75033527  0.64823306
   0.00000000  0.50000000  0.64832732
   0.25000000  0.00000000  0.45042739
   0.50000000  0.25000000  0.45042739
   0.25000000  0.25000000  0.35128218
   0.50000000  0.00000000  0.35128218
   0.24967597  0.00000000  0.65069376
   0.50000000  0.24861637  0.65087487
   0.24999563  0.24999563  0.54981502
   0.50000000  0.00000000  0.54974366
   0.25000000  0.50000000  0.45042739
   0.50000000  0.75000000  0.45042739
   0.25000000  0.75000000  0.35128218
   0.50000000  0.50000000  0.35128218
   0.24861637  0.50000000  0.65087487
   0.50000000  0.75138363  0.65087487
   0.24999563  0.75000437  0.54981502
   0.50000000  0.50000000  0.55036141
   0.75000000  0.00000000  0.45042739
   0.00000000  0.25000000  0.45042739
   0.75000000  0.25000000  0.35128218
   0.00000000  0.00000000  0.35128218
   0.75032403  0.00000000  0.65069376
   0.00000000  0.24967597  0.65069376
   0.75000437  0.24999563  0.54981502
   0.00000000  0.00000000  0.54971088
   0.75000000  0.50000000  0.45042739
   0.00000000  0.75000000  0.45042739
   0.75000000  0.75000000  0.35128218
   0.00000000  0.50000000  0.35128218
   0.75138363  0.50000000  0.65087487
   0.00000000  0.75032403  0.65069376
   0.75000437  0.75000437  0.54981502
   0.00000000  0.50000000  0.54974366

 position of ions in cartesian coordinates  (Angst):
   4.23357132  4.23357132 16.31337587
   4.23357132  4.23357132 17.45681361
   2.11678566  0.00000000  7.50000000
   4.23357132  2.11678566  7.50000000
   2.11678566  2.11678566  9.61678566
   4.23357132  0.00000000  9.61678566
   2.11789210  0.00000000 11.74378574
   4.23357132  2.12143728 11.74989911
   2.11394684  2.11394684 13.84000727
   4.23357132  0.00000000 13.84201961
   2.11678566  4.23357132  7.50000000
   4.23357132  6.35035697  7.50000000
   2.11678566  6.35035697  9.61678566
   4.23357132  4.23357132  9.61678566
   2.12143728  4.23357132 11.74989911
   4.23357132  6.34570535 11.74989911
   2.11394684  6.35319579 13.84000727
   4.23357132  4.23357132 13.89963502
   6.35035697  0.00000000  7.50000000
   0.00000000  2.11678566  7.50000000
   6.35035697  2.11678566  9.61678566
   0.00000000  0.00000000  9.61678566
   6.34925053  0.00000000 11.74378574
   0.00000000  2.11789210 11.74378574
   6.35319579  2.11394684 13.84000727
   0.00000000  0.00000000 13.84178315
   6.35035697  4.23357132  7.50000000
   0.00000000  6.35035697  7.50000000
   6.35035697  6.35035697  9.61678566
   0.00000000  4.23357132  9.61678566
   6.34570535  4.23357132 11.74989911
   0.00000000  6.34925053 11.74378574
   6.35319579  6.35319579 13.84000727
   0.00000000  4.23357132 13.84201961
   2.11678566  0.00000000  9.61678566
   4.23357132  2.11678566  9.61678566
   2.11678566  2.11678566  7.50000000
   4.23357132  0.00000000  7.50000000
   2.11404204  0.00000000 13.89254400
   4.23357132  2.10507030 13.89641088
   2.11674862  2.11674862 11.73874694
   4.23357132  0.00000000 11.73722335
   2.11678566  4.23357132  9.61678566
   4.23357132  6.35035697  9.61678566
   2.11678566  6.35035697  7.50000000
   4.23357132  4.23357132  7.50000000
   2.10507030  4.23357132 13.89641088
   4.23357132  6.36207233 13.89641088
   2.11674862  6.35039401 11.73874694
   4.23357132  4.23357132 11.75041252
   6.35035697  0.00000000  9.61678566
   0.00000000  2.11678566  9.61678566
   6.35035697  2.11678566  7.50000000
   0.00000000  0.00000000  7.50000000
   6.35310059  0.00000000 13.89254400
   0.00000000  2.11404204 13.89254400
   6.35039401  2.11674862 11.73874694
   0.00000000  0.00000000 11.73652345
   6.35035697  4.23357132  9.61678566
   0.00000000  6.35035697  9.61678566
   6.35035697  6.35035697  7.50000000
   0.00000000  4.23357132  7.50000000
   6.36207233  4.23357132 13.89641088
   0.00000000  6.35310059 13.89254400
   6.35039401  6.35039401 11.73874694
   0.00000000  4.23357132 11.73722335



--------------------------------------------------------------------------------------------------------


 k-point   1 :   0.0000 0.0000 0.0000  plane waves:   50993
 k-point   2 :   0.5000 0.0000 0.0000  plane waves:   51062
 k-point   3 :   0.5000 0.5000 0.0000  plane waves:   51224

 maximum and minimum number of plane-waves per node :     25612    25492

 maximum number of plane-waves:     51224
 maximum index in each direction:
   IXMAX=   16   IYMAX=   16   IZMAX=   42
   IXMIN=  -17   IYMIN=  -17   IZMIN=  -42


 parallel 3D FFT for wavefunctions:
    minimum data exchange during FFTs selected (reduces bandwidth)
 parallel 3D FFT for charge:
    minimum data exchange during FFTs selected (reduces bandwidth)


 total amount of memory used by VASP MPI-rank0   132918. kBytes
=======================================================================

   base      :      30000. kBytes
   nonl-proj :      59185. kBytes
   fftplans  :      14616. kBytes
   grid      :      21323. kBytes
   one-center:        267. kBytes
   wavefun   :       7527. kBytes

     INWAV:  cpu time      0.0000: real time      0.0000
 Broyden mixing: mesh for mixing (old mesh)
   NGX = 33   NGY = 33   NGZ = 85
  (NGX  =140   NGY  =140   NGZ  =360)
  gives a total of  92565 points

 initial charge density was supplied:
 charge density of overlapping atoms calculated
 number of electron     458.0000000 magnetization
 keeping initial charge density in first step


--------------------------------------------------------------------------------------------------------


 Maximum index for augmentation-charges          604 (set IRDMAX)


--------------------------------------------------------------------------------------------------------


 First call to EWALD:  gamma=   0.154
 Maximum number of real-space cells 4x 4x 2
 Maximum number of reciprocal cells 2x 2x 5

    FEWALD:  cpu time      0.0014: real time      0.0014


--------------------------------------- Iteration      1(   1)  ---------------------------------------


    POTLOK:  cpu time      0.0480: real time      0.0483
    SETDIJ:  cpu time      0.0896: real time      0.0898
    TRIAL :  cpu time      3.2440: real time      3.2577
    CORREC:  cpu time      0.0003: real time      0.0003
    --------------------------------------------
      LOOP:  cpu time      3.3854: real time      3.4008

 eigenvalue-minimisations  :  2280
 total energy-change (2. order) : 0.3392118E+04  (-0.3128490E+05)
 number of electron     458.0000000 magnetization
 augmentation part      458.0000000 magnetization

 DIPCOR: dipole corrections for dipol
 direction  3 min pos     1,
 dipolmoment           0.000000      0.000000     -0.000241 electrons x Angstroem
 Tr[quadrupol]     -6357.714726

 energy correction for charged system         0.000000 eV
 dipol+quadrupol energy correction           -0.000000 eV
 added-field ion interaction          0.001893 eV  (added to PSCEN)


 Free energy of the ion-electron system (eV)
  ---------------------------------------------------
  alpha Z        PSCENC =       901.53545673
  Ewald energy   TEWEN  =    136283.33494689
  -Hartree energ DENC   =   -172375.71704424
  -exchange      EXHF   =         0.00000000
  -V(xc)+E(xc)   XCENC  =      1788.27638999
  PAW double counting   =     32310.01086261   -36145.30683839
  entropy T*S    EENTRO =        -0.02064759
  eigenvalues    EBANDS =     -7599.88356143
  atomic energy  EATOM  =     48229.88884101
  ---------------------------------------------------
  free energy    TOTEN  =      3392.11840558 eV

  energy without entropy =     3392.13905317  energy(sigma->0) =     3392.12872937


--------------------------------------------------------------------------------------------------------




--------------------------------------- Iteration      1(   2)  ---------------------------------------


    TRIAL :  cpu time      3.1285: real time      3.1426
    CORREC:  cpu time      0.0001: real time      0.0001
    --------------------------------------------
      LOOP:  cpu time      3.1298: real time      3.1484

 eigenvalue-minimisations  :  2280
 total energy-change (2. order) :-0.3637349E+04  (-0.3621882E+04)
 number of electron     458.0000000 magnetization
 augmentation part      458.0000000 magnetization

 DIPCOR: dipole corrections for dipol
 direction  3 min pos     1,
 dipolmoment           0.000000      0.000000     -0.000241 electrons x Angstroem
 Tr[quadrupol]     -6357.714726

 energy correction for charged system         0.000000 eV
 dipol+quadrupol energy correction           -0.000000 eV
 added-field ion interaction          0.001893 eV  (added to PSCEN)


 Free energy of the ion-electron system (eV)
  ---------------------------------------------------
  alpha Z        PSCENC =       901.53545673
  Ewald energy   TEWEN  =    136283.33494689
  -Hartree energ DENC   =   -172375.71704424
  -exchange      EXHF   =         0.00000000
  -V(xc)+E(xc)   XCENC  =      1788.27638999
  PAW double counting   =     32310.01086261   -36145.30683839
  entropy T*S    EENTRO =        -0.00000000
  eigenvalues    EBANDS =    -11237.25325045
  atomic energy  EATOM  =     48229.88884101
  ---------------------------------------------------
  free energy    TOTEN  =      -245.23063585 eV

  energy without entropy =     -245.23063585  energy(sigma->0) =     -245.23063585


--------------------------------------------------------------------------------------------------------




--------------------------------------- Iteration      1(   3)  ---------------------------------------


    TRIAL :  cpu time      3.8696: real time      3.8868
    CORREC:  cpu time      0.0001: real time      0.0001
    --------------------------------------------
      LOOP:  cpu time      3.8710: real time      3.8911

 eigenvalue-minimisations  :  2584
 total energy-change (2. order) :-0.2036392E+03  (-0.2033422E+03)
 number of electron     458.0000000 magnetization
 augmentation part      458.0000000 magnetization

 DIPCOR: dipole corrections for dipol
 direction  3 min pos     1,
 dipolmoment           0.000000      0.000000     -0.000241 electrons x Angstroem
 Tr[quadrupol]     -6357.714726

 energy correction for charged system         0.000000 eV
 dipol+quadrupol energy correction           -0.000000 eV
 added-field ion interaction          0.001893 eV  (added to PSCEN)


 Free energy of the ion-electron system (eV)
  ---------------------------------------------------
  alpha Z        PSCENC =       901.53545673
  Ewald energy   TEWEN  =    136283.33494689
  -Hartree energ DENC   =   -172375.71704424
  -exchange      EXHF   =         0.00000000
  -V(xc)+E(xc)   XCENC  =      1788.27638999
  PAW double counting   =     32310.01086261   -36145.30683839
  entropy T*S    EENTRO =        -0.00000000
  eigenvalues    EBANDS =    -11440.89246937
  atomic energy  EATOM  =     48229.88884101
  ---------------------------------------------------
  free energy    TOTEN  =      -448.86985477 eV

  energy without entropy =     -448.86985477  energy(sigma->0) =     -448.86985477


--------------------------------------------------------------------------------------------------------




--------------------------------------- Iteration      1(   4)  ---------------------------------------


    TRIAL :  cpu time      2.9344: real time      2.9475
    CORREC:  cpu time      0.0001: real time      0.0001
    --------------------------------------------
      LOOP:  cpu time      2.9361: real time      2.9513

 eigenvalue-minimisations  :  2128
 total energy-change (2. order) :-0.1719568E+01  (-0.1719306E+01)
 number of electron     458.0000000 magnetization
 augmentation part      458.0000000 magnetization

 DIPCOR: dipole corrections for dipol
 direction  3 min pos     1,
 dipolmoment           0.000000      0.000000     -0.000241 electrons x Angstroem
 Tr[quadrupol]     -6357.714726

 energy correction for charged system         0.000000 eV
 dipol+quadrupol energy correction           -0.000000 eV
 added-field ion interaction          0.001893 eV  (added to PSCEN)


 Free energy of the ion-electron system (eV)
  ---------------------------------------------------
  alpha Z        PSCENC =       901.53545673
  Ewald energy   TEWEN  =    136283.33494689
  -Hartree energ DENC   =   -172375.71704424
  -exchange      EXHF   =         0.00000000
  -V(xc)+E(xc)   XCENC  =      1788.27638999
  PAW double counting   =     32310.01086261   -36145.30683839
  entropy T*S    EENTRO =        -0.00000000
  eigenvalues    EBANDS =    -11442.61203722
  atomic energy  EATOM  =     48229.88884101
  ---------------------------------------------------
  free energy    TOTEN  =      -450.58942262 eV

  energy without entropy =     -450.58942262  energy(sigma->0) =     -450.58942262


--------------------------------------------------------------------------------------------------------




--------------------------------------- Iteration      1(   5)  ---------------------------------------


    TRIAL :  cpu time      3.6040: real time      3.6188
    CORREC:  cpu time      0.0001: real time      0.0001
    CHARGE:  cpu time      0.1340: real time      0.1345
    --------------------------------------------
      LOOP:  cpu time      3.7392: real time      3.7576

 eigenvalue-minimisations  :  2432
 total energy-change (2. order) :-0.2456558E-01  (-0.2456475E-01)
 number of electron     457.9999538 magnetization
 augmentation part      159.5612531 magnetization

 DIPCOR: dipole corrections for dipol
 direction  3 min pos     1,
 dipolmoment           0.000000      0.000000     -0.000241 electrons x Angstroem
 Tr[quadrupol]     -6357.714726

 energy correction for charged system         0.000000 eV
 dipol+quadrupol energy correction           -0.000000 eV
 added-field ion interaction          0.001893 eV  (added to PSCEN)


 Free energy of the ion-electron system (eV)
  ---------------------------------------------------
  alpha Z        PSCENC =       901.53545673
  Ewald energy   TEWEN  =    136283.33494689
  -Hartree energ DENC   =   -172375.71704424
  -exchange      EXHF   =         0.00000000
  -V(xc)+E(xc)   XCENC  =      1788.27638999
  PAW double counting   =     32310.01086261   -36145.30683839
  entropy T*S    EENTRO =        -0.00000000
  eigenvalues    EBANDS =    -11442.63660280
  atomic energy  EATOM  =     48229.88884101
  ---------------------------------------------------
  free energy    TOTEN  =      -450.61398820 eV

  energy without entropy =     -450.61398820  energy(sigma->0) =     -450.61398820


--------------------------------------------------------------------------------------------------------




--------------------------------------- Iteration      1(   6)  ---------------------------------------


    POTLOK:  cpu time      0.0385: real time      0.0386
    SETDIJ:  cpu time      0.0894: real time      0.0896
    TRIAL :  cpu time      0.8980: real time      0.9019
    CORREC:  cpu time      0.5376: real time      0.5394
    CHARGE:  cpu time      0.1324: real time      0.1331
    --------------------------------------------
      LOOP:  cpu time      1.6983: real time      1.7072

 eigenvalue-minimisations  :     0
 total energy-change (2. order) : 0.1742946E+03  (-0.9708112E+02)
 number of electron     457.9999551 magnetization
 augmentation part      156.5857995 magnetization

 DIPCOR: dipole corrections for dipol
 direction  3 min pos     1,
 dipolmoment           0.000000      0.000000      0.139530 electrons x Angstroem
 Tr[quadrupol]     -6391.650463

 energy correction for charged system         0.000000 eV
 dipol+quadrupol energy correction           -0.001151 eV
 added-field ion interaction         -1.094591 eV  (added to PSCEN)


 Free energy of the ion-electron system (eV)
  ---------------------------------------------------
  alpha Z        PSCENC =       898.22350634
  Ewald energy   TEWEN  =    136283.33494689
  -Hartree energ DENC   =   -176227.41281754
  -exchange      EXHF   =         0.00000000
  -V(xc)+E(xc)   XCENC  =      1914.04480765
  PAW double counting   =     36946.26085062   -40735.09868673
  entropy T*S    EENTRO =        -0.00000000
  eigenvalues    EBANDS =     -7585.56087604
  atomic energy  EATOM  =     48229.88884101
  ---------------------------------------------------
  free energy    TOTEN  =      -276.31942778 eV

  energy without entropy =     -276.31942778  energy(sigma->0) =     -276.31942778


--------------------------------------------------------------------------------------------------------




--------------------------------------- Iteration      1(   7)  ---------------------------------------


    POTLOK:  cpu time      0.0320: real time      0.0321
    SETDIJ:  cpu time      0.0888: real time      0.0890
    TRIAL :  cpu time      0.8899: real time      0.8938
    CORREC:  cpu time      0.5242: real time      0.5258
    CHARGE:  cpu time      0.1307: real time      0.1312
    --------------------------------------------
      LOOP:  cpu time      1.6669: real time      1.6760

 eigenvalue-minimisations  :     0
 total energy-change (2. order) :-0.9773193E+02  (-0.6473705E+01)
 number of electron     457.9999556 magnetization
 augmentation part      154.8316175 magnetization

 DIPCOR: dipole corrections for dipol
 direction  3 min pos     1,
 dipolmoment           0.000000      0.000000      0.155093 electrons x Angstroem
 Tr[quadrupol]     -6398.953718

 energy correction for charged system         0.000000 eV
 dipol+quadrupol energy correction           -0.001422 eV
 added-field ion interaction         -1.216682 eV  (added to PSCEN)


 Free energy of the ion-electron system (eV)
  ---------------------------------------------------
  alpha Z        PSCENC =       900.06332955
  Ewald energy   TEWEN  =    136283.33494689
  -Hartree energ DENC   =   -174336.37028423
  -exchange      EXHF   =         0.00000000
  -V(xc)+E(xc)   XCENC  =      1844.46680229
  PAW double counting   =     35762.37731771   -39620.73344440
  entropy T*S    EENTRO =        -0.00000000
  eigenvalues    EBANDS =     -9437.07886408
  atomic energy  EATOM  =     48229.88884101
  ---------------------------------------------------
  free energy    TOTEN  =      -374.05135525 eV

  energy without entropy =     -374.05135525  energy(sigma->0) =     -374.05135525


--------------------------------------------------------------------------------------------------------




--------------------------------------- Iteration      1(   8)  ---------------------------------------


    POTLOK:  cpu time      0.0324: real time      0.0325
    SETDIJ:  cpu time      0.0887: real time      0.0889
    TRIAL :  cpu time      0.8795: real time      0.8834
    CORREC:  cpu time      0.5200: real time      0.5217
    CHARGE:  cpu time      0.1297: real time      0.1302
    --------------------------------------------
      LOOP:  cpu time      1.6516: real time      1.6606

 eigenvalue-minimisations  :     0
 total energy-change (2. order) :-0.6488561E+01  (-0.3813737E+01)
 number of electron     457.9999556 magnetization
 augmentation part      154.9556159 magnetization

 DIPCOR: dipole corrections for dipol
 direction  3 min pos     1,
 dipolmoment           0.000000      0.000000      0.115171 electrons x Angstroem
 Tr[quadrupol]     -6397.835222

 energy correction for charged system         0.000000 eV
 dipol+quadrupol energy correction           -0.000784 eV
 added-field ion interaction         -0.903500 eV  (added to PSCEN)


 Free energy of the ion-electron system (eV)
  ---------------------------------------------------
  alpha Z        PSCENC =       900.38815453
  Ewald energy   TEWEN  =    136283.33494689
  -Hartree energ DENC   =   -174242.14135082
  -exchange      EXHF   =         0.00000000
  -V(xc)+E(xc)   XCENC  =      1835.15826885
  PAW double counting   =     35686.79861194   -39479.27705497
  entropy T*S    EENTRO =        -0.00000000
  eigenvalues    EBANDS =     -9594.69033347
  atomic energy  EATOM  =     48229.88884101
  ---------------------------------------------------
  free energy    TOTEN  =      -380.53991605 eV

  energy without entropy =     -380.53991605  energy(sigma->0) =     -380.53991605


--------------------------------------------------------------------------------------------------------




--------------------------------------- Iteration      1(   9)  ---------------------------------------


    POTLOK:  cpu time      0.0326: real time      0.0327
    SETDIJ:  cpu time      0.0889: real time      0.0891
    TRIAL :  cpu time      0.8777: real time      0.8817
    CORREC:  cpu time      0.5160: real time      0.5176
    CHARGE:  cpu time      0.1309: real time      0.1314
    --------------------------------------------
      LOOP:  cpu time      1.6480: real time      1.6565

 eigenvalue-minimisations  :     0
 total energy-change (2. order) :-0.3766220E+01  (-0.1758727E+01)
 number of electron     457.9999556 magnetization
 augmentation part      154.9476858 magnetization

 DIPCOR: dipole corrections for dipol
 direction  3 min pos     1,
 dipolmoment           0.000000      0.000000      0.144596 electrons x Angstroem
 Tr[quadrupol]     -6391.905293

 energy correction for charged system         0.000000 eV
 dipol+quadrupol energy correction           -0.001236 eV
 added-field ion interaction         -1.134331 eV  (added to PSCEN)


 Free energy of the ion-electron system (eV)
  ---------------------------------------------------
  alpha Z        PSCENC =       900.72674665
  Ewald energy   TEWEN  =    136283.33494689
  -Hartree energ DENC   =   -174154.06774092
  -exchange      EXHF   =         0.00000000
  -V(xc)+E(xc)   XCENC  =      1834.98255608
  PAW double counting   =     35643.89495805   -39469.35686583
  entropy T*S    EENTRO =        -0.00000000
  eigenvalues    EBANDS =     -9653.70957778
  atomic energy  EATOM  =     48229.88884101
  ---------------------------------------------------
  free energy    TOTEN  =      -384.30613586 eV

  energy without entropy =     -384.30613586  energy(sigma->0) =     -384.30613586


--------------------------------------------------------------------------------------------------------




--------------------------------------- Iteration      1(  10)  ---------------------------------------


    POTLOK:  cpu time      0.0324: real time      0.0326
    SETDIJ:  cpu time      0.0889: real time      0.0891
    TRIAL :  cpu time      0.8763: real time      0.8802
    CORREC:  cpu time      0.5135: real time      0.5152
    CHARGE:  cpu time      0.1295: real time      0.1300
    --------------------------------------------
      LOOP:  cpu time      1.6426: real time      1.6513

 eigenvalue-minimisations  :     0
 total energy-change (2. order) :-0.1765594E+01  (-0.6120146E+00)
 number of electron     457.9999556 magnetization
 augmentation part      154.8780723 magnetization

 DIPCOR: dipole corrections for dipol
 direction  3 min pos     1,
 dipolmoment           0.000000      0.000000      0.174712 electrons x Angstroem
 Tr[quadrupol]     -6389.983421

 energy correction for charged system         0.000000 eV
 dipol+quadrupol energy correction           -0.001804 eV
 added-field ion interaction         -1.370590 eV  (added to PSCEN)


 Free energy of the ion-electron system (eV)
  ---------------------------------------------------
  alpha Z        PSCENC =       900.42412076
  Ewald energy   TEWEN  =    136283.33494689
  -Hartree energ DENC   =   -173991.60983688
  -exchange      EXHF   =         0.00000000
  -V(xc)+E(xc)   XCENC  =      1833.32516829
  PAW double counting   =     35536.16776726   -39369.32983426
  entropy T*S    EENTRO =        -0.00000000
  eigenvalues    EBANDS =     -9808.27290291
  atomic energy  EATOM  =     48229.88884101
  ---------------------------------------------------
  free energy    TOTEN  =      -386.07172983 eV

  energy without entropy =     -386.07172983  energy(sigma->0) =     -386.07172983


--------------------------------------------------------------------------------------------------------




--------------------------------------- Iteration      1(  11)  ---------------------------------------


    POTLOK:  cpu time      0.0326: real time      0.0327
    SETDIJ:  cpu time      0.0887: real time      0.0889
    TRIAL :  cpu time      0.8781: real time      0.8819
    CORREC:  cpu time      0.5146: real time      0.5164
    CHARGE:  cpu time      0.1311: real time      0.1316
    --------------------------------------------
      LOOP:  cpu time      1.6464: real time      1.6557

 eigenvalue-minimisations  :     0
 total energy-change (2. order) :-0.6139904E+00  (-0.2097508E+00)
 number of electron     457.9999556 magnetization
 augmentation part      154.9532837 magnetization

 DIPCOR: dipole corrections for dipol
 direction  3 min pos     1,
 dipolmoment           0.000000      0.000000      0.153522 electrons x Angstroem
 Tr[quadrupol]     -6390.637773

 energy correction for charged system         0.000000 eV
 dipol+quadrupol energy correction           -0.001393 eV
 added-field ion interaction         -1.204356 eV  (added to PSCEN)


 Free energy of the ion-electron system (eV)
  ---------------------------------------------------
  alpha Z        PSCENC =       900.19891156
  Ewald energy   TEWEN  =    136283.33494689
  -Hartree energ DENC   =   -173917.33118204
  -exchange      EXHF   =         0.00000000
  -V(xc)+E(xc)   XCENC  =      1832.18713313
  PAW double counting   =     35467.90370763   -39293.01406332
  entropy T*S    EENTRO =        -0.00000000
  eigenvalues    EBANDS =     -9889.85401508
  atomic energy  EATOM  =     48229.88884101
  ---------------------------------------------------
  free energy    TOTEN  =      -386.68572020 eV

  energy without entropy =     -386.68572020  energy(sigma->0) =     -386.68572020


--------------------------------------------------------------------------------------------------------




--------------------------------------- Iteration      1(  12)  ---------------------------------------


    POTLOK:  cpu time      0.0328: real time      0.0329
    SETDIJ:  cpu time      0.0891: real time      0.0893
    TRIAL :  cpu time      0.8743: real time      0.8793
    CORREC:  cpu time      0.5156: real time      0.5173
    CHARGE:  cpu time      0.1297: real time      0.1302
    --------------------------------------------
      LOOP:  cpu time      1.6429: real time      1.6530

 eigenvalue-minimisations  :     0
 total energy-change (2. order) :-0.2097485E+00  (-0.7083372E-01)
 number of electron     457.9999556 magnetization
 augmentation part      155.0569045 magnetization

 DIPCOR: dipole corrections for dipol
 direction  3 min pos     1,
 dipolmoment           0.000000      0.000000      0.136674 electrons x Angstroem
 Tr[quadrupol]     -6391.250695

 energy correction for charged system         0.000000 eV
 dipol+quadrupol energy correction           -0.001104 eV
 added-field ion interaction         -1.072186 eV  (added to PSCEN)


 Free energy of the ion-electron system (eV)
  ---------------------------------------------------
  alpha Z        PSCENC =       900.32444336
  Ewald energy   TEWEN  =    136283.33494689
  -Hartree energ DENC   =   -173931.38753465
  -exchange      EXHF   =         0.00000000
  -V(xc)+E(xc)   XCENC  =      1832.31476984
  PAW double counting   =     35449.90919887   -39272.94204206
  entropy T*S    EENTRO =        -0.00000000
  eigenvalues    EBANDS =     -9878.33809198
  atomic energy  EATOM  =     48229.88884101
  ---------------------------------------------------
  free energy    TOTEN  =      -386.89546872 eV

  energy without entropy =     -386.89546872  energy(sigma->0) =     -386.89546872


--------------------------------------------------------------------------------------------------------




--------------------------------------- Iteration      1(  13)  ---------------------------------------


    POTLOK:  cpu time      0.0325: real time      0.0326
    SETDIJ:  cpu time      0.0892: real time      0.0894
    TRIAL :  cpu time      0.8744: real time      0.8784
    CORREC:  cpu time      0.5116: real time      0.5134
    CHARGE:  cpu time      0.1310: real time      0.1315
    --------------------------------------------
      LOOP:  cpu time      1.6406: real time      1.6492

 eigenvalue-minimisations  :     0
 total energy-change (2. order) :-0.7084038E-01  (-0.3036982E-01)
 number of electron     457.9999555 magnetization
 augmentation part      155.1029026 magnetization

 DIPCOR: dipole corrections for dipol
 direction  3 min pos     1,
 dipolmoment           0.000000      0.000000      0.130700 electrons x Angstroem
 Tr[quadrupol]     -6391.611326

 energy correction for charged system         0.000000 eV
 dipol+quadrupol energy correction           -0.001010 eV
 added-field ion interaction         -1.025320 eV  (added to PSCEN)


 Free energy of the ion-electron system (eV)
  ---------------------------------------------------
  alpha Z        PSCENC =       900.46448896
  Ewald energy   TEWEN  =    136283.33494689
  -Hartree energ DENC   =   -173956.30925588
  -exchange      EXHF   =         0.00000000
  -V(xc)+E(xc)   XCENC  =      1832.57568163
  PAW double counting   =     35448.92247212   -39274.71780215
  entropy T*S    EENTRO =        -0.00000000
  eigenvalues    EBANDS =     -9851.12568167
  atomic energy  EATOM  =     48229.88884101
  ---------------------------------------------------
  free energy    TOTEN  =      -386.96630909 eV

  energy without entropy =     -386.96630909  energy(sigma->0) =     -386.96630909


--------------------------------------------------------------------------------------------------------




--------------------------------------- Iteration      1(  14)  ---------------------------------------


    POTLOK:  cpu time      0.0330: real time      0.0331
    SETDIJ:  cpu time      0.0897: real time      0.0899
    TRIAL :  cpu time      0.8749: real time      0.8788
    CORREC:  cpu time      0.5116: real time      0.5133
    CHARGE:  cpu time      0.1302: real time      0.1307
    --------------------------------------------
      LOOP:  cpu time      1.6403: real time      1.6498

 eigenvalue-minimisations  :     0
 total energy-change (2. order) :-0.3038674E-01  (-0.1354322E-01)
 number of electron     457.9999555 magnetization
 augmentation part      155.0932575 magnetization

 DIPCOR: dipole corrections for dipol
 direction  3 min pos     1,
 dipolmoment           0.000000      0.000000      0.128965 electrons x Angstroem
 Tr[quadrupol]     -6391.886002

 energy correction for charged system         0.000000 eV
 dipol+quadrupol energy correction           -0.000983 eV
 added-field ion interaction         -1.011715 eV  (added to PSCEN)


 Free energy of the ion-electron system (eV)
  ---------------------------------------------------
  alpha Z        PSCENC =       900.51430273
  Ewald energy   TEWEN  =    136283.33494689
  -Hartree energ DENC   =   -173968.77939891
  -exchange      EXHF   =         0.00000000
  -V(xc)+E(xc)   XCENC  =      1832.62085769
  PAW double counting   =     35450.69755789   -39278.22203770
  entropy T*S    EENTRO =        -0.00000000
  eigenvalues    EBANDS =     -9837.05176544
  atomic energy  EATOM  =     48229.88884101
  ---------------------------------------------------
  free energy    TOTEN  =      -386.99669583 eV

  energy without entropy =     -386.99669583  energy(sigma->0) =     -386.99669583


--------------------------------------------------------------------------------------------------------




--------------------------------------- Iteration      1(  15)  ---------------------------------------


    POTLOK:  cpu time      0.0327: real time      0.0329
    SETDIJ:  cpu time      0.0892: real time      0.0894
    TRIAL :  cpu time      0.8764: real time      0.8803
    CORREC:  cpu time      0.5121: real time      0.5139
    CHARGE:  cpu time      0.1310: real time      0.1315
    --------------------------------------------
      LOOP:  cpu time      1.6429: real time      1.6521

 eigenvalue-minimisations  :     0
 total energy-change (2. order) :-0.1355405E-01  (-0.6025267E-02)
 number of electron     457.9999555 magnetization
 augmentation part      155.0775113 magnetization

 DIPCOR: dipole corrections for dipol
 direction  3 min pos     1,
 dipolmoment           0.000000      0.000000      0.128240 electrons x Angstroem
 Tr[quadrupol]     -6392.112073

 energy correction for charged system         0.000000 eV
 dipol+quadrupol energy correction           -0.000972 eV
 added-field ion interaction         -1.006026 eV  (added to PSCEN)


 Free energy of the ion-electron system (eV)
  ---------------------------------------------------
  alpha Z        PSCENC =       900.52182303
  Ewald energy   TEWEN  =    136283.33494689
  -Hartree energ DENC   =   -173976.18202941
  -exchange      EXHF   =         0.00000000
  -V(xc)+E(xc)   XCENC  =      1832.64496752
  PAW double counting   =     35454.76429758   -39281.63356100
  entropy T*S    EENTRO =        -0.00000000
  eigenvalues    EBANDS =     -9830.34953550
  atomic energy  EATOM  =     48229.88884101
  ---------------------------------------------------
  free energy    TOTEN  =      -387.01024988 eV

  energy without entropy =     -387.01024988  energy(sigma->0) =     -387.01024988


--------------------------------------------------------------------------------------------------------




--------------------------------------- Iteration      1(  16)  ---------------------------------------


    POTLOK:  cpu time      0.0330: real time      0.0332
    SETDIJ:  cpu time      0.0883: real time      0.0885
    TRIAL :  cpu time      0.8690: real time      0.8730
    CORREC:  cpu time      0.5112: real time      0.5128
    CHARGE:  cpu time      0.1298: real time      0.1303
    --------------------------------------------
      LOOP:  cpu time      1.6334: real time      1.6418

 eigenvalue-minimisations  :     0
 total energy-change (2. order) :-0.6027947E-02  (-0.2294824E-02)
 number of electron     457.9999555 magnetization
 augmentation part      155.0733093 magnetization

 DIPCOR: dipole corrections for dipol
 direction  3 min pos     1,
 dipolmoment           0.000000      0.000000      0.129220 electrons x Angstroem
 Tr[quadrupol]     -6392.238637

 energy correction for charged system         0.000000 eV
 dipol+quadrupol energy correction           -0.000987 eV
 added-field ion interaction         -1.013715 eV  (added to PSCEN)


 Free energy of the ion-electron system (eV)
  ---------------------------------------------------
  alpha Z        PSCENC =       900.52760900
  Ewald energy   TEWEN  =    136283.33494689
  -Hartree energ DENC   =   -173984.02846905
  -exchange      EXHF   =         0.00000000
  -V(xc)+E(xc)   XCENC  =      1832.73365277
  PAW double counting   =     35459.57233485   -39285.71107631
  entropy T*S    EENTRO =        -0.00000000
  eigenvalues    EBANDS =     -9823.33411700
  atomic energy  EATOM  =     48229.88884101
  ---------------------------------------------------
  free energy    TOTEN  =      -387.01627783 eV

  energy without entropy =     -387.01627783  energy(sigma->0) =     -387.01627783


--------------------------------------------------------------------------------------------------------




--------------------------------------- Iteration      1(  17)  ---------------------------------------


    POTLOK:  cpu time      0.0334: real time      0.0335
    SETDIJ:  cpu time      0.0891: real time      0.0893
    TRIAL :  cpu time      0.8747: real time      0.8785
    CORREC:  cpu time      0.5105: real time      0.5121
    CHARGE:  cpu time      0.1315: real time      0.1320
    --------------------------------------------
      LOOP:  cpu time      1.6399: real time      1.6492

 eigenvalue-minimisations  :     0
 total energy-change (2. order) :-0.2291230E-02  (-0.8715323E-03)
 number of electron     457.9999555 magnetization
 augmentation part      155.0738539 magnetization

 DIPCOR: dipole corrections for dipol
 direction  3 min pos     1,
 dipolmoment           0.000000      0.000000      0.131769 electrons x Angstroem
 Tr[quadrupol]     -6392.259071

 energy correction for charged system         0.000000 eV
 dipol+quadrupol energy correction           -0.001026 eV
 added-field ion interaction         -1.033708 eV  (added to PSCEN)


 Free energy of the ion-electron system (eV)
  ---------------------------------------------------
  alpha Z        PSCENC =       900.51660329
  Ewald energy   TEWEN  =    136283.33494689
  -Hartree energ DENC   =   -173988.08162264
  -exchange      EXHF   =         0.00000000
  -V(xc)+E(xc)   XCENC  =      1832.77963419
  PAW double counting   =     35462.47893736   -39288.71864886
  entropy T*S    EENTRO =        -0.00000000
  eigenvalues    EBANDS =     -9819.21726031
  atomic energy  EATOM  =     48229.88884101
  ---------------------------------------------------
  free energy    TOTEN  =      -387.01856906 eV

  energy without entropy =     -387.01856906  energy(sigma->0) =     -387.01856906


--------------------------------------------------------------------------------------------------------




--------------------------------------- Iteration      1(  18)  ---------------------------------------


    POTLOK:  cpu time      0.0331: real time      0.0332
    SETDIJ:  cpu time      0.0893: real time      0.0895
    TRIAL :  cpu time      0.8702: real time      0.8741
    CORREC:  cpu time      0.5110: real time      0.5127
    CHARGE:  cpu time      0.1299: real time      0.1304
    --------------------------------------------
      LOOP:  cpu time      1.6347: real time      1.6440

 eigenvalue-minimisations  :     0
 total energy-change (2. order) :-0.8693538E-03  (-0.3428673E-03)
 number of electron     457.9999555 magnetization
 augmentation part      155.0747006 magnetization

 DIPCOR: dipole corrections for dipol
 direction  3 min pos     1,
 dipolmoment           0.000000      0.000000      0.133671 electrons x Angstroem
 Tr[quadrupol]     -6392.232079

 energy correction for charged system         0.000000 eV
 dipol+quadrupol energy correction           -0.001056 eV
 added-field ion interaction         -1.048627 eV  (added to PSCEN)


 Free energy of the ion-electron system (eV)
  ---------------------------------------------------
  alpha Z        PSCENC =       900.49369126
  Ewald energy   TEWEN  =    136283.33494689
  -Hartree energ DENC   =   -173988.42601535
  -exchange      EXHF   =         0.00000000
  -V(xc)+E(xc)   XCENC  =      1832.79456076
  PAW double counting   =     35464.59526059   -39290.99663988
  entropy T*S    EENTRO =        -0.00000000
  eigenvalues    EBANDS =     -9818.70408369
  atomic energy  EATOM  =     48229.88884101
  ---------------------------------------------------
  free energy    TOTEN  =      -387.01943841 eV

  energy without entropy =     -387.01943841  energy(sigma->0) =     -387.01943841


--------------------------------------------------------------------------------------------------------




--------------------------------------- Iteration      1(  19)  ---------------------------------------


    POTLOK:  cpu time      0.0329: real time      0.0330
    SETDIJ:  cpu time      0.0897: real time      0.0899
    TRIAL :  cpu time      0.8734: real time      0.8773
    CORREC:  cpu time      0.5104: real time      0.5123
    CHARGE:  cpu time      0.1312: real time      0.1316
    --------------------------------------------
      LOOP:  cpu time      1.6394: real time      1.6484

 eigenvalue-minimisations  :     0
 total energy-change (2. order) :-0.3428868E-03  (-0.1336072E-03)
 number of electron     457.9999555 magnetization
 augmentation part      155.0744643 magnetization

 DIPCOR: dipole corrections for dipol
 direction  3 min pos     1,
 dipolmoment           0.000000      0.000000      0.134303 electrons x Angstroem
 Tr[quadrupol]     -6392.199439

 energy correction for charged system         0.000000 eV
 dipol+quadrupol energy correction           -0.001066 eV
 added-field ion interaction         -1.053584 eV  (added to PSCEN)


 Free energy of the ion-electron system (eV)
  ---------------------------------------------------
  alpha Z        PSCENC =       900.48061548
  Ewald energy   TEWEN  =    136283.33494689
  -Hartree energ DENC   =   -173987.46996559
  -exchange      EXHF   =         0.00000000
  -V(xc)+E(xc)   XCENC  =      1832.80971165
  PAW double counting   =     35466.06700700   -39292.42139903
  entropy T*S    EENTRO =        -0.00000000
  eigenvalues    EBANDS =     -9819.70953873
  atomic energy  EATOM  =     48229.88884101
  ---------------------------------------------------
  free energy    TOTEN  =      -387.01978130 eV

  energy without entropy =     -387.01978130  energy(sigma->0) =     -387.01978130


--------------------------------------------------------------------------------------------------------




--------------------------------------- Iteration      1(  20)  ---------------------------------------


    POTLOK:  cpu time      0.0334: real time      0.0335
    SETDIJ:  cpu time      0.0889: real time      0.0891
    TRIAL :  cpu time      0.8701: real time      0.8740
    CORREC:  cpu time      0.5104: real time      0.5121
    CHARGE:  cpu time      0.1300: real time      0.1305
    --------------------------------------------
      LOOP:  cpu time      1.6344: real time      1.6433

 eigenvalue-minimisations  :     0
 total energy-change (2. order) :-0.1338974E-03  (-0.5222993E-04)
 number of electron     457.9999555 magnetization
 augmentation part      155.0741341 magnetization

 DIPCOR: dipole corrections for dipol
 direction  3 min pos     1,
[...]
    274       7.6490      0.00000
    275       7.6861      0.00000
    276       7.8679      0.00000
    277       7.8807      0.00000
    278       7.8895      0.00000
    279       7.8929      0.00000
    280       7.8993      0.00000
    281       7.9179      0.00000
    282       7.9702      0.00000
    283       8.0046      0.00000
    284       8.1024      0.00000
    285       8.1232      0.00000
    286       8.1555      0.00000
    287       8.2125      0.00000
    288       8.5127      0.00000
    289       8.5590      0.00000
    290       8.6178      0.00000
    291       8.6637      0.00000
    292       8.7438      0.00000
    293       8.7744      0.00000
    294       8.8078      0.00000
    295       8.8368      0.00000
    296       8.8676      0.00000
    297       8.9948      0.00000
    298       9.0356      0.00000
    299       9.0683      0.00000
    300       9.3788      0.00000
    301       9.4815      0.00000
    302       9.5025      0.00000
    303       9.5339      0.00000
    304       9.6087      0.00000


--------------------------------------------------------------------------------------------------------


 soft charge-density along one line, spin component           1
         0         1         2         3         4         5         6         7         8         9
 total charge-density along one line

 pseudopotential strength for first ion, spin component:           1
 10.230  13.605  -0.000   0.032   0.000   0.000  -0.095  -0.000
 13.605  18.093  -0.000   0.042   0.000   0.000  -0.126  -0.000
 -0.000  -0.000  -4.367  -0.000  -0.000   8.554   0.000   0.000
  0.032   0.042  -0.000  -4.407  -0.000   0.000   8.613   0.000
  0.000   0.000  -0.000  -0.000  -4.367   0.000   0.000   8.554
  0.000   0.000   8.554   0.000   0.000 -18.894  -0.000  -0.000
 -0.095  -0.126   0.000   8.613   0.000  -0.000 -18.974  -0.000
 -0.000  -0.000   0.000   0.000   8.554  -0.000  -0.000 -18.894
 total augmentation occupancy for first ion, spin component:           1
  7.371  -3.343  -0.000   2.034   0.000   0.000   0.374   0.000
 -3.343   1.899   0.000  -1.550   0.000   0.000  -0.227   0.000
 -0.000   0.000   0.844   0.000   0.000   0.060   0.000   0.000
  2.034  -1.550   0.000   2.241  -0.000   0.000   0.212   0.000
  0.000   0.000   0.000  -0.000   0.844   0.000   0.000   0.060
  0.000   0.000   0.060   0.000   0.000   0.004   0.000   0.000
  0.374  -0.227   0.000   0.212   0.000   0.000   0.029   0.000
  0.000   0.000   0.000   0.000   0.060   0.000   0.000   0.004


------------------------ aborting loop because EDIFF is reached ----------------------------------------


    FORLOC:  cpu time      0.0031: real time      0.0031
    FORNL :  cpu time      0.3049: real time      0.3064
    STRESS:  cpu time      2.2310: real time      2.2394
    FORCOR:  cpu time      0.0295: real time      0.0296
    OFIELD:  cpu time      0.0001: real time      0.0001

  DFT-D2 method for vdW energy calculation
  -------------------------------------------------------------------

  Parameters of vdW forcefield:
         C6(Jnm^6/mol)     R0(A)
   -----------------------------
   C        1.750          1.452
   O        0.700          1.342
   Mg       0.630          1.243
   O        0.700          1.342

  vdW correction parametrized for the method pbe

  IVDW =   1
  VDW_RADIUS =    50.000 A
  VDW_S6 =     0.750
  VDW_SR =     1.000
  VDW_D =    20.000
  LVDW_EWALD = F

  Number of pair interactions contributing to vdW energy:  763730
  Edisp (eV):   -3.65586
    FORVDW:  cpu time      0.0371: real time      0.0372

  FORCE on cell =-STRESS in cart. coord.  units (eV):
  Direction    XX          YY          ZZ          XY          YZ          ZX
  --------------------------------------------------------------------------------------
  Alpha Z   901.53356   901.53356   901.53356
  Ewald  156713.02684156713.02684************     0.00000     0.00000     0.00000
  Hartree167138.28653167138.28653************    -0.00000    -0.00000    -0.00000
  E(xc)   -2499.85258 -2499.85258 -2503.68331     0.00000     0.00000    -0.00000
  Local  ************************333340.86761    -0.00000    -0.00000    -0.00000
  n-local -2831.15787 -2831.98426 -2861.94934     0.00000    -0.00000     0.00000
  augment  1054.07963  1054.07963  1044.53426     0.00000    -0.00000    -0.00000
  Kinetic  7489.40962  7492.04334  7514.10690    -0.00001     0.00001     0.00000
  Fock        0.00000     0.00000     0.00000     0.00000     0.00000     0.00000
  vdW        -5.31234    -5.31234    -4.41433     0.00000    -0.00000    -0.00000
  -------------------------------------------------------------------------------------
  Total     -29.01135   -29.01135    -2.77757     0.00000     0.00000     0.00000
  in kB     -30.36684   -30.36684    -2.90735     0.00000     0.00000     0.00000
  external pressure =      -21.21 kB  Pullay stress =        0.00 kB


 VOLUME and BASIS-vectors are now :
 -----------------------------------------------------------------------------
  energy-cutoff  :      600.00
  volume of cell :     1530.66
      direct lattice vectors                 reciprocal lattice vectors
     8.467142631  0.000000000  0.000000000     0.118103597  0.000000000  0.000000000
     0.000000000  8.467142631  0.000000000     0.000000000  0.118103597  0.000000000
     0.000000000  0.000000000 21.350356973     0.000000000  0.000000000  0.046837624

  length of vectors
     8.467142631  8.467142631 21.350356973     0.118103597  0.118103597  0.046837624


 FORCES acting on ions:
    Electron-Ion                     Ewald-Force                    Non-Local-Force
 -----------------------------------------------------------------------------------------------
   0.922E-13 0.132E-11 -.834E+03   -.741E-14 0.224E-14 0.807E+03   0.587E-23 -.638E-23 0.267E+02
   0.411E-12 -.177E-11 -.145E+04   -.598E-14 0.424E-14 0.151E+04   -.232E-24 0.205E-23 -.602E+02
   0.715E-01 -.356E-12 0.206E+04   -.702E-01 0.123E-12 -.206E+04   -.910E-03 -.333E-22 -.702E+01
   0.675E-12 0.676E-01 0.206E+04   0.155E-12 -.633E-01 -.206E+04   -.288E-22 -.329E-02 -.703E+01
   0.221E+00 0.221E+00 0.711E+03   -.202E+00 -.202E+00 -.711E+03   -.128E-01 -.128E-01 0.507E+00
   0.612E-12 0.115E-11 0.711E+03   0.151E-10 -.149E-10 -.711E+03   0.362E-22 0.776E-23 0.447E+00
   0.257E+01 -.181E-12 -.636E+03   -.254E+01 -.146E-11 0.636E+03   -.286E-01 0.139E-22 -.246E+00
   0.619E-12 0.383E+01 -.631E+03   0.143E-11 -.372E+01 0.632E+03   -.925E-23 -.123E+00 -.328E+00
   0.176E+02 0.176E+02 -.197E+04   -.177E+02 -.177E+02 0.196E+04   0.138E+00 0.138E+00 0.612E+01
   0.685E-12 0.705E-12 -.198E+04   0.490E-12 -.432E-12 0.197E+04   -.218E-22 0.800E-25 0.604E+01
   0.676E-01 -.134E-13 0.206E+04   -.633E-01 -.168E-10 -.206E+04   -.329E-02 0.520E-22 -.703E+01
   0.672E-12 -.676E-01 0.206E+04   -.297E-11 0.633E-01 -.206E+04   -.107E-22 0.329E-02 -.703E+01
   0.221E+00 -.221E+00 0.711E+03   -.202E+00 0.202E+00 -.711E+03   -.128E-01 0.128E-01 0.507E+00
   0.639E-12 -.591E-12 0.710E+03   0.165E-10 0.245E-13 -.711E+03   -.179E-22 0.239E-22 0.618E+00
   0.383E+01 0.940E-12 -.631E+03   -.372E+01 -.252E-13 0.632E+03   -.123E+00 0.456E-22 -.328E+00
   0.604E-12 -.383E+01 -.631E+03   0.299E-11 0.372E+01 0.632E+03   -.209E-22 0.123E+00 -.328E+00
   0.176E+02 -.176E+02 -.197E+04   -.177E+02 0.177E+02 0.196E+04   0.138E+00 -.138E+00 0.612E+01
   0.696E-12 0.153E-11 -.190E+04   0.543E-13 0.720E-14 0.190E+04   0.119E-22 -.276E-22 0.377E+01
   -.715E-01 -.342E-12 0.206E+04   0.702E-01 0.281E-13 -.206E+04   0.910E-03 -.869E-22 -.702E+01
   -.482E-13 0.715E-01 0.206E+04   0.202E-10 -.702E-01 -.206E+04   -.455E-22 -.910E-03 -.702E+01
   -.221E+00 0.221E+00 0.711E+03   0.202E+00 -.202E+00 -.711E+03   0.128E-01 -.128E-01 0.507E+00
   -.769E-13 0.151E-12 0.710E+03   -.120E-11 -.149E-10 -.710E+03   -.432E-23 0.867E-23 0.457E+00
   -.257E+01 -.144E-12 -.636E+03   0.254E+01 -.151E-11 0.636E+03   0.286E-01 0.885E-23 -.246E+00
   -.632E-13 0.257E+01 -.636E+03   -.148E-11 -.254E+01 0.636E+03   0.258E-22 -.286E-01 -.246E+00
   -.176E+02 0.176E+02 -.197E+04   0.177E+02 -.177E+02 0.196E+04   -.138E+00 0.138E+00 0.612E+01
   -.279E-13 -.879E-12 -.199E+04   -.147E-13 0.557E-13 0.198E+04   0.149E-22 -.726E-23 0.606E+01
   -.676E-01 -.577E-12 0.206E+04   0.633E-01 -.168E-10 -.206E+04   0.329E-02 -.336E-22 -.703E+01
   -.466E-13 -.715E-01 0.206E+04   0.169E-10 0.702E-01 -.206E+04   -.149E-22 0.910E-03 -.702E+01
   -.221E+00 -.221E+00 0.711E+03   0.202E+00 0.202E+00 -.711E+03   0.128E-01 0.128E-01 0.507E+00
   -.653E-13 0.608E-12 0.711E+03   0.221E-12 0.430E-13 -.711E+03   -.233E-23 0.129E-22 0.447E+00
   -.383E+01 -.151E-11 -.631E+03   0.372E+01 -.573E-13 0.632E+03   0.123E+00 0.432E-22 -.328E+00
   -.661E-13 -.257E+01 -.636E+03   0.289E-13 0.254E+01 0.636E+03   -.414E-23 0.286E-01 -.246E+00
   -.176E+02 -.176E+02 -.197E+04   0.177E+02 0.177E+02 0.196E+04   -.138E+00 -.138E+00 0.612E+01
   -.293E-13 0.604E-12 -.198E+04   -.319E-13 -.249E-13 0.197E+04   0.228E-22 0.387E-22 0.604E+01
   0.235E+00 -.132E-12 0.532E+03   -.232E+00 -.520E-13 -.532E+03   -.480E-02 -.561E-23 -.686E-01
   0.290E-12 0.223E+00 0.532E+03   -.141E-12 -.255E+00 -.532E+03   0.656E-23 0.424E-01 -.123E+00
   0.510E-01 0.510E-01 0.155E+04   -.483E-01 -.483E-01 -.155E+04   -.380E-02 -.380E-02 0.349E+01
   0.350E-12 -.698E-12 0.155E+04   -.855E-11 0.834E-11 -.155E+04   0.129E-22 0.693E-22 0.349E+01
   0.706E+01 -.685E-12 -.151E+04   -.698E+01 -.232E-12 0.152E+04   -.776E-01 0.644E-24 -.514E+01
   0.310E-12 0.236E+02 -.148E+04   -.549E-13 -.232E+02 0.149E+04   0.470E-22 -.357E+00 -.513E+01
   0.229E+01 0.229E+01 -.468E+03   -.229E+01 -.229E+01 0.468E+03   0.631E-03 0.631E-03 0.432E+00
   0.284E-12 0.272E-12 -.468E+03   -.811E-12 0.832E-12 0.468E+03   0.490E-23 0.994E-24 0.368E+00
   0.223E+00 0.178E-12 0.532E+03   -.255E+00 0.828E-11 -.532E+03   0.424E-01 -.157E-23 -.123E+00
   0.287E-12 -.223E+00 0.532E+03   0.647E-12 0.255E+00 -.532E+03   -.657E-23 -.424E-01 -.123E+00
   0.510E-01 -.510E-01 0.155E+04   -.483E-01 0.483E-01 -.155E+04   -.380E-02 0.380E-02 0.349E+01
   0.318E-12 -.145E-11 0.155E+04   -.948E-11 -.396E-13 -.155E+04   -.866E-23 -.965E-24 0.349E+01
   0.236E+02 -.423E-12 -.148E+04   -.232E+02 -.211E-13 0.149E+04   -.357E+00 0.289E-22 -.513E+01
   0.311E-12 -.236E+02 -.148E+04   -.758E-14 0.232E+02 0.149E+04   -.124E-23 0.357E+00 -.513E+01
   0.229E+01 -.229E+01 -.468E+03   -.229E+01 0.229E+01 0.468E+03   0.631E-03 -.631E-03 0.432E+00
   0.265E-12 -.732E-12 -.471E+03   0.823E-11 -.141E-13 0.471E+03   0.641E-24 -.539E-24 -.247E+00
   -.235E+00 -.839E-13 0.532E+03   0.232E+00 -.546E-13 -.532E+03   0.480E-02 0.101E-22 -.686E-01
   -.493E-13 0.235E+00 0.532E+03   -.935E-11 -.232E+00 -.532E+03   0.167E-23 -.480E-02 -.686E-01
   -.510E-01 0.510E-01 0.155E+04   0.483E-01 -.483E-01 -.155E+04   0.380E-02 -.380E-02 0.349E+01
   -.298E-13 0.980E-12 0.155E+04   0.908E-12 0.838E-11 -.155E+04   0.153E-23 -.122E-24 0.350E+01
   -.706E+01 -.577E-12 -.151E+04   0.698E+01 -.220E-12 0.152E+04   0.776E-01 0.165E-22 -.514E+01
   -.230E-13 0.706E+01 -.151E+04   -.121E-12 -.698E+01 0.152E+04   0.234E-22 -.776E-01 -.514E+01
   -.229E+01 0.229E+01 -.468E+03   0.229E+01 -.229E+01 0.468E+03   -.631E-03 0.631E-03 0.432E+00
   -.477E-13 0.691E-12 -.473E+03   0.142E-13 -.576E-13 0.472E+03   0.582E-23 0.204E-22 0.333E+00
   -.223E+00 0.530E-11 0.532E+03   0.255E+00 0.838E-11 -.532E+03   -.424E-01 -.836E-23 -.123E+00
   -.482E-13 -.235E+00 0.532E+03   -.861E-11 0.232E+00 -.532E+03   -.729E-23 0.480E-02 -.686E-01
   -.510E-01 -.510E-01 0.155E+04   0.483E-01 0.483E-01 -.155E+04   0.380E-02 0.380E-02 0.349E+01
   -.322E-13 0.124E-11 0.155E+04   -.166E-12 -.246E-12 -.155E+04   -.912E-23 0.104E-22 0.349E+01
   -.236E+02 -.461E-11 -.148E+04   0.232E+02 -.498E-13 0.149E+04   0.357E+00 0.127E-22 -.513E+01
   -.299E-13 -.706E+01 -.151E+04   0.148E-13 0.698E+01 0.152E+04   -.420E-23 0.776E-01 -.514E+01
   -.229E+01 -.229E+01 -.468E+03   0.229E+01 0.229E+01 0.468E+03   -.631E-03 -.631E-03 0.432E+00
   -.517E-13 -.604E-13 -.468E+03   -.214E-13 0.213E-13 0.468E+03   0.846E-23 0.311E-23 0.368E+00
 -----------------------------------------------------------------------------------------------
   0.192E-10 -.297E-11 0.530E+02   0.892E-13 -.416E-12 -.796E-12   -.513E-16 -.514E-16 -.530E+02


 POSITION                                       TOTAL-FORCE (eV/Angst)
 -----------------------------------------------------------------------------------
      4.23357      4.23357     16.31338        -0.000000     -0.000000     -0.001601
      4.23357      4.23357     17.45681        -0.000000     -0.000000     -0.002175
      2.11679      0.00000      7.50000         0.000380     -0.000000      0.392568
      4.23357      2.11679      7.50000        -0.000000      0.000963      0.394095
      2.11679      2.11679      9.61679         0.005437      0.005437      0.020373
      4.23357      0.00000      9.61679        -0.000000     -0.000000      0.030299
      2.11789      0.00000     11.74379        -0.002328     -0.000000      0.002684
      4.23357      2.12144     11.74990        -0.000000     -0.005707     -0.002673
      2.11395      2.11395     13.84001         0.001830      0.001830      0.003097
      4.23357      0.00000     13.84202        -0.000000      0.000000     -0.000884
      2.11679      4.23357      7.50000         0.000963     -0.000000      0.394095
      4.23357      6.35036      7.50000        -0.000000     -0.000963      0.394095
      2.11679      6.35036      9.61679         0.005437     -0.005437      0.020373
      4.23357      4.23357      9.61679        -0.000000     -0.000000      0.039182
      2.12144      4.23357     11.74990        -0.005707     -0.000000     -0.002673
      4.23357      6.34571     11.74990        -0.000000      0.005707     -0.002673
      2.11395      6.35320     13.84001         0.001830     -0.001830      0.003097
      4.23357      4.23357     13.89964        -0.000000     -0.000000     -0.004321
      6.35036      0.00000      7.50000        -0.000380     -0.000000      0.392568
      0.00000      2.11679      7.50000        -0.000000      0.000380      0.392568
      6.35036      2.11679      9.61679        -0.005437      0.005437      0.020373
      0.00000      0.00000      9.61679        -0.000000     -0.000000      0.016884
      6.34925      0.00000     11.74379         0.002328     -0.000000      0.002684
      0.00000      2.11789     11.74379        -0.000000     -0.002328      0.002684
      6.35320      2.11395     13.84001        -0.001830      0.001830      0.003097
      0.00000      0.00000     13.84178        -0.000000      0.000000      0.001486
      6.35036      4.23357      7.50000        -0.000963      0.000000      0.394095
      0.00000      6.35036      7.50000        -0.000000     -0.000380      0.392568
      6.35036      6.35036      9.61679        -0.005437     -0.005437      0.020373
      0.00000      4.23357      9.61679        -0.000000     -0.000000      0.030299
      6.34571      4.23357     11.74990         0.005707      0.000000     -0.002673
      0.00000      6.34925     11.74379        -0.000000      0.002328      0.002684
      6.35320      6.35320     13.84001        -0.001830     -0.001830      0.003097
      0.00000      4.23357     13.84202        -0.000000      0.000000     -0.000884
      2.11679      0.00000      9.61679        -0.001463      0.000000      0.052135
      4.23357      2.11679      9.61679        -0.000000      0.010762      0.065812
      2.11679      2.11679      7.50000        -0.001069     -0.001069     -0.476162
      4.23357      0.00000      7.50000        -0.000000     -0.000000     -0.476187
      2.11404      0.00000     13.89254         0.003503     -0.000000      0.003369
      4.23357      2.10507     13.89641        -0.000000      0.001766     -0.003397
      2.11675      2.11675     11.73875         0.002945      0.002945     -0.000257
      4.23357      0.00000     11.73722        -0.000000     -0.000000     -0.001090
      2.11679      4.23357      9.61679         0.010762     -0.000000      0.065812
      4.23357      6.35036      9.61679        -0.000000     -0.010762      0.065812
      2.11679      6.35036      7.50000        -0.001069      0.001069     -0.476162
      4.23357      4.23357      7.50000        -0.000000      0.000000     -0.477760
      2.10507      4.23357     13.89641         0.001766      0.000000     -0.003397
      4.23357      6.36207     13.89641        -0.000000     -0.001766     -0.003397
      2.11675      6.35039     11.73875         0.002945     -0.002945     -0.000257
      4.23357      4.23357     11.75041        -0.000000     -0.000000     -0.005698
      6.35036      0.00000      9.61679         0.001463     -0.000000      0.052135
      0.00000      2.11679      9.61679        -0.000000     -0.001463      0.052135
      6.35036      2.11679      7.50000         0.001069     -0.001069     -0.476162
      0.00000      0.00000      7.50000        -0.000000     -0.000000     -0.475521
      6.35310      0.00000     13.89254        -0.003503      0.000000      0.003369
      0.00000      2.11404     13.89254        -0.000000      0.003503      0.003369
      6.35039      2.11675     11.73875        -0.002945      0.002945     -0.000257
      0.00000      0.00000     11.73652        -0.000000     -0.000000     -0.001327
      6.35036      4.23357      9.61679        -0.010762     -0.000000      0.065812
      0.00000      6.35036      9.61679        -0.000000      0.001463      0.052135
      6.35036      6.35036      7.50000         0.001069      0.001069     -0.476162
      0.00000      4.23357      7.50000        -0.000000     -0.000000     -0.476187
      6.36207      4.23357     13.89641        -0.001766      0.000000     -0.003397
      0.00000      6.35310     13.89254        -0.000000     -0.003503      0.003369
      6.35039      6.35039     11.73875        -0.002945     -0.002945     -0.000257
      0.00000      4.23357     11.73722        -0.000000      0.000000     -0.001090
 -----------------------------------------------------------------------------------
    total drift:                                0.000000     -0.000000      0.019893


--------------------------------------------------------------------------------------------------------



  FREE ENERGIE OF THE ION-ELECTRON SYSTEM (eV)
  ---------------------------------------------------
  free  energy   TOTEN  =      -390.67585416 eV

  energy  without entropy=     -390.67585416  energy(sigma->0) =     -390.67585416



--------------------------------------------------------------------------------------------------------


    POTLOK:  cpu time      0.1154: real time      0.1157


--------------------------------------------------------------------------------------------------------


     LOOP+:  cpu time     54.6260: real time     54.9438
    4ORBIT:  cpu time      0.0000: real time      0.0000

 total amount of memory used by VASP MPI-rank0   132918. kBytes
=======================================================================

   base      :      30000. kBytes
   nonl-proj :      59185. kBytes
   fftplans  :      14616. kBytes
   grid      :      21323. kBytes
   one-center:        267. kBytes
   wavefun   :       7527. kBytes



 General timing and accounting informations for this job:
 ========================================================

                  Total CPU time used (sec):       57.768
                            User time (sec):       57.251
                          System time (sec):        0.516
                         Elapsed time (sec):       58.750

                   Maximum memory used (kb):      405776.
                   Average memory used (kb):          N/A

                          Minor page faults:        52651
                          Major page faults:          140
                 Voluntary context switches:         1901
