
                                 *****************
                                 * O   R   C   A *
                                 *****************

                                            #,                                       
                                            ###                                      
                                            ####                                     
                                            #####                                    
                                            ######                                   
                                           ########,                                 
                                     ,,################,,,,,                         
                               ,,#################################,,                 
                          ,,##########################################,,             
                       ,#########################################, ''#####,          
                    ,#############################################,,   '####,        
                  ,##################################################,,,,####,       
                ,###########''''           ''''###############################       
              ,#####''   ,,,,##########,,,,          '''####'''          '####       
            ,##' ,,,,###########################,,,                        '##       
           ' ,,###''''                  '''############,,,                           
         ,,##''                                '''############,,,,        ,,,,,,###''
      ,#''                                            '''#######################'''  
     '                                                          ''''####''''         
             ,#######,   #######,   ,#######,      ##                                
            ,#'     '#,  ##    ##  ,#'     '#,    #''#        ,####,   ,####,        
            ##       ##  ##   ,#'  ##            #'  '#       #'       #'  '#        
            ##       ##  #######   ##           ,######,      #####,   #    #        
            '#,     ,#'  ##    ##  '#,     ,#' ,#      #,     #,   #   #,  ,#        
             '#######'   ##     ##  '#######'  #'      '#     '####' # '####'        



                #########################################################
                #                        -***-                          #
                #          Department of theory and spectroscopy        #
                #                                                       #
                #                      Frank Neese                      #
                #                                                       #
                #     Directorship, Architecture, Infrastructure        #
                #                    SHARK, DRIVERS                     #
                #        Core code/Algorithms in most modules           #
                #                                                       #
                #        Max Planck Institute fuer Kohlenforschung      #
                #                Kaiser Wilhelm Platz 1                 #
                #                 D-45470 Muelheim/Ruhr                 #
                #                      Germany                          #
                #                                                       #
                #                  All rights reserved                  #
                #                        -***-                          #
                #########################################################


                         Program Version 6.0.0  -   RELEASE  -


 With contributions from (in alphabetic order):
   Daniel Aravena         : Magnetic Suceptibility
   Michael Atanasov       : Ab Initio Ligand Field Theory (pilot matlab implementation)
   Alexander A. Auer      : GIAO ZORA, VPT2 properties, NMR spectrum
   Ute Becker             : All parallelization in ORCA, NUMFREQ, NUMCALC
   Giovanni Bistoni       : ED, misc. LED, open-shell LED, HFLD
   Martin Brehm           : Molecular dynamics
   Dmytro Bykov           : pre 5.0 version of the SCF Hessian
   Marcos Casanova-Páez   : Triplet and SCS-CIS(D). UHF-(DLPNO)-IP/EA/STEOM-CCSD. UHF-CVS-IP/STEOM-CCSD
   Vijay G. Chilkuri      : MRCI spin determinant printing, contributions to CSF-ICE
   Pauline Colinet        : FMM embedding
   Dipayan Datta          : RHF DLPNO-CCSD density
   Achintya Kumar Dutta   : EOM-CC, STEOM-CC
   Nicolas Foglia         : Exact transition moments, OPA infrastructure, MCD improvements
   Dmitry Ganyushin       : Spin-Orbit,Spin-Spin,Magnetic field MRCI
   Miquel Garcia          : C-PCM and meta-GGA Hessian, CCSD/C-PCM, Gaussian charge scheme
   Tiago L. C. Gouveia    : GS-ROHF, GS-ROCIS
   Yang Guo               : DLPNO-NEVPT2, F12-NEVPT2, CIM, IAO-localization
   Andreas Hansen         : Spin unrestricted coupled pair/coupled cluster methods
   Ingolf Harden          : AUTO-CI MPn and infrastructure 
   Benjamin Helmich-Paris : MC-RPA, TRAH-(SCF,CASSCF), AVAS, COSX integrals, SCF dyn. polar.
   Lee Huntington         : MR-EOM, pCC
   Robert Izsak           : Overlap fitted RIJCOSX, COSX-SCS-MP3, EOM
   Riya Kayal             : Wick's Theorem for AUTO-CI, AUTO-CI UHF-CCSDT
   Emily Kempfer          : AUTO-CI, RHF CISDT and CCSDT
   Christian Kollmar      : KDIIS, OOCD, Brueckner-CCSD(T), CCSD density, CASPT2, CASPT2-K, improved NEVPT2
   Axel Koslowski         : Symmetry handling
   Simone Kossmann        : Meta GGA functionals, TD-DFT gradient, OOMP2, (MP2 Hessian; deprecated post 5.0)
   Lucas Lang             : DCDCAS
   Marvin Lechner         : AUTO-CI (C++ implementation), FIC-MRCC
   Spencer Leger          : CASSCF response
   Dagmar Lenk            : GEPOL surface, SMD, ORCA-2-JSON
   Dimitrios Liakos       : Extrapolation schemes; Compound Job, initial MDCI parallelization
   Dimitrios Manganas     : Further ROCIS development; embedding schemes. LFT, Crystal Embedding
   Dimitrios Pantazis     : SARC Basis sets
   Anastasios Papadopoulos: AUTO-CI, single reference methods and gradients
   Taras Petrenko         : pre 6.0 DFT Hessian and TD-DFT gradient, (ASA, deprecated), ECA, 1-Electron XAS/XES, NRVS
   Peter Pinski           : DLPNO-MP2, DLPNO-MP2 Gradient
   Christoph Reimann      : Effective Core Potentials
   Marius Retegan         : Local ZFS, SOC
   Christoph Riplinger    : Optimizer, TS searches, QM/MM, DLPNO-CCSD(T), (RO)-DLPNO pert. Triples
   Michael Roemelt        : Original ROCIS implementation
   Masaaki Saitow         : Open-shell DLPNO-CCSD energy and density
   Barbara Sandhoefer     : DKH picture change effects
   Kantharuban Sivalingam : CASSCF convergence/infrastructure, NEVPT2 and variants, FIC-MRCI
   Bernardo de Souza      : ESD, SOC TD-DFT
   Georgi Stoychev        : AutoAux, RI-MP2 NMR, DLPNO-MP2 response, X2C
   Van Anh Tran           : RI-MP2 g-tensors
   Willem Van den Heuvel  : Paramagnetic NMR
   Zikuan Wang            : NOTCH, Electric field optimization 
   Frank Wennmohs         : Technical directorship and infrastructure
   Hang Xu                : AUTO-CI-Response properties 


 We gratefully acknowledge several colleagues who have allowed us to
 interface, adapt or use parts of their codes:
   Stefan Grimme, W. Hujo, H. Kruse, P. Pracht,  : VdW corrections, initial TS optimization,
                  C. Bannwarth, S. Ehlert,         DFT functionals, gCP, sTDA/sTD-DF
                  L. Wittmann, M. Mueller
   Ed Valeev, F. Pavosevic, A. Kumar             : LibInt (2-el integral package), F12 methods
   Garnet Chan, S. Sharma, J. Yang, R. Olivares  : DMRG
   Ulf Ekstrom                                   : XCFun DFT Library
   Mihaly Kallay                                 : mrcc  (arbitrary order and MRCC methods)
   Frank Weinhold                                : gennbo (NPA and NBO analysis)
   Simon Mueller                                 : openCOSMO-RS
   Christopher J. Cramer and Donald G. Truhlar   : smd solvation model
   Lars Goerigk                                  : TD-DFT with DH, B97 family of functionals
   V. Asgeirsson, H. Jonsson                     : NEB implementation
   FAccTs GmbH                                   : IRC, NEB, NEB-TS, DLPNO-Multilevel, CI-OPT
                                                   MM, QMMM, 2- and 3-layer-ONIOM, Crystal-QMMM,
                                                   LR-CPCM, SF, NACMEs, symmetry and pop. for TD-DFT,
                                                   nearIR, NL-DFT gradient (VV10), updates on ESD,
                                                   ML-optimized integration grids, MBIS, APM,
                                                   GOAT, DOCKER, SOLVATOR, interface openCOSMO-RS
   S Lehtola, MJT Oliveira, MAL Marques          : LibXC Library
   Liviu Ungur et al                             : ANISO software


 Your calculation uses the libint2 library for the computation of 2-el integrals
 For citations please refer to: http://libint.valeyev.net

 Your ORCA version has been built with support for libXC version: 6.2.2
 For citations please refer to: https://libxc.gitlab.io

 This ORCA versions uses:
   CBLAS   interface :  Fast vector & matrix operations
   LAPACKE interface :  Fast linear algebra routines
   SCALAPACK package :  Parallel linear algebra routines
   Shared memory     :  Shared parallel matrices
   BLAS/LAPACK       :  OpenBLAS 0.3.27  USE64BITINT DYNAMIC_ARCH NO_AFFINITY Haswell SINGLE_THREADED
        Core in use  :  Haswell
   Copyright (c) 2011-2014, The OpenBLAS Project


NOTE: MaxCore=25000 MB was set to SCF,MP2,MDCI,CIPSI,MRCI and CIS
      => If you want to overwrite this, your respective input block should be placed after the MaxCore statement
Setting NCore(C ) from 2 to 2
Setting NCore(Mg) from 2 to 10
Setting NCore(O ) from 2 to 2
SCAN-COORDS
================================================================================

----- Orbital basis set information -----
Your calculation utilizes the basis: def2-SVP
   F. Weigend and R. Ahlrichs, Phys. Chem. Chem. Phys. 7, 3297 (2005).

The basis set includes element-specific modifications.

Your calculation utilizes the basis: aug-cc-pVDZ 
    H, B-Ne : Obtained from the ccRepo (grant-hill.group.shef.ac.uk/ccrepo) Feb. 2017
              R. A. Kendall, T. H. Dunning, Jr., R. J. Harrison, J. Chem. Phys. 96, 6796 (1992)
         He : Obtained from the ccRepo (grant-hill.group.shef.ac.uk/ccrepo) Feb. 2017
              D. E. Woon, T. H. Dunning, Jr., J. Chem. Phys. 100, 2975 (1994)
  Li-Be, Na : Obtained from the ccRepo (grant-hill.group.shef.ac.uk/ccrepo) Feb. 2017
              B. P. Prascher, D. E. Woon, K. A. Peterson, T. H. Dunning, Jr., A. K. Wilson, Theor. Chem. Acc. 128, 69 (2011)
         Mg : Obtained from the Peterson Research Group Website (tyr0.chem.wsu.edu/~kipeters) Feb. 2017
              B. P. Prascher, D. E. Woon, K. A. Peterson, T. H. Dunning, Jr., A. K. Wilson, Theor. Chem. Acc. 128, 69 (2011)
      Al-Ar : Obtained from the ccRepo (grant-hill.group.shef.ac.uk/ccrepo) Feb. 2017
              D. E. Woon, T. H. Dunning, Jr., J. Chem. Phys. 98, 1358 (1993)
      Sc-Zn : Obtained from the ccRepo (grant-hill.group.shef.ac.uk/ccrepo) Feb. 2017
              N. B. Balabanov, K. A. Peterson, J. Chem. Phys. 123, 064107 (2005)
              N. B. Balabanov, K. A. Peterson, J. Chem. Phys. 125, 074110 (2006)
      Ga-Kr : Obtained from the ccRepo (grant-hill.group.shef.ac.uk/ccrepo) Feb. 2017
              A. K. Wilson, D. E. Woon, K. A. Peterson, T. H. Dunning, Jr., J. Chem. Phys. 110, 7667 (1999)

Your calculation utilizes the basis: cc-pVDZ 
       H, B-Ne : Obtained from the ccRepo (grant-hill.group.shef.ac.uk/ccrepo) Feb. 2017
                 T. H. Dunning, Jr., J. Chem. Phys. 90, 1007 (1989)
            He : Obtained from the ccRepo (grant-hill.group.shef.ac.uk/ccrepo) Feb. 2017
                 D. E. Woon, T. H. Dunning, Jr., J. Chem. Phys. 100, 2975 (1994)
  Li-Be, Na-Mg : Obtained from the ccRepo (grant-hill.group.shef.ac.uk/ccrepo) Feb. 2017
                 B. P. Prascher, D. E. Woon, K. A. Peterson, T. H. Dunning, Jr., A. K. Wilson, Theor. Chem. Acc. 128, 69 (2011)
         Al-Ar : Obtained from the ccRepo (grant-hill.group.shef.ac.uk/ccrepo) Feb. 2017
                 D. E. Woon, T. H. Dunning, Jr., J. Chem. Phys. 98, 1358 (1993)
            Ca : Obtained from the Peterson Research Group Website (tyr0.chem.wsu.edu/~kipeters) Feb. 2017
                 J. Koput, K. A. Peterson, J. Phys. Chem. 106, 9595 (2002)
         Sc-Zn : Obtained from the ccRepo (grant-hill.group.shef.ac.uk/ccrepo) Feb. 2017
                 N. B. Balabanov, K. A. Peterson, J. Chem. Phys. 123, 064107 (2005)
                 N. B. Balabanov, K. A. Peterson, J. Chem. Phys. 125, 074110 (2006)
         Ga-Kr : Obtained from the ccRepo (grant-hill.group.shef.ac.uk/ccrepo) Feb. 2017
                 A. K. Wilson, D. E. Woon, K. A. Peterson, T. H. Dunning, Jr., J. Chem. Phys. 110, 7667 (1999)

----- AuxJ basis set information -----
Your calculation utilizes the auxiliary basis: def2/J
   F. Weigend, Phys. Chem. Chem. Phys. 8, 1057 (2006).

----- AuxC basis set information -----
The basis set includes element-specific modifications.

Your calculation utilizes the auxiliary basis: aug-cc-pVDZ/C 
  H-He, B, Ne, Al-Ar, Ga-Ge, Se-Br : Obtained from the EMSL Basis Set Exchange (bse.pnl.gov) Feb. 2017
                                     F. Weigend, A. Kohn, C. Hattig, J. Chem. Phys. 116, 3175 (2002)
                            Be, Mg : Obtained from the TURBOMOLE 7.0 basis set library
                                     C. Haettig, Phys. Chem. Chem. Phys. 7, 59 (2005)
                               C-F : Obtained from the EMSL Basis Set Exchange (bse.pnl.gov) Feb. 2017
                                     C. Haettig, Phys. Chem. Chem. Phys. 7, 59 (2005)
                                     F. Weigend, A. Kohn, C. Hattig, J. Chem. Phys. 116, 3175 (2002)
                                As : Obtained from the EMSL Basis Set Exchange (bse.pnl.gov) Feb. 2017
                                     C. Haettig, G. Schmitz, J. Kossmann, Phys. Chem. Chem. Phys. 14, 6549 (2012)
                                Kr : Obtained from the TURBOMOLE 7.0 basis set library
                                     F. Weigend, A. Kohn, C. Hattig, J. Chem. Phys. 116, 3175 (2002)
                                     S function revised in Sep. 2009

Your calculation utilizes the auxiliary basis: cc-pVDZ/C 
  H-He, B, Ne, Al-Ar, Ga-Br : Obtained from the EMSL Basis Set Exchange (bse.pnl.gov) Feb. 2017
                              F. Weigend, A. Kohn, C. Hattig, J. Chem. Phys. 116, 3175 (2002)
               Li-Be, Na-Mg : Obtained from the EMSL Basis Set Exchange (bse.pnl.gov) Feb. 2017
                              C. Haettig, Phys. Chem. Chem. Phys. 7, 59 (2005)
                        C-F : Obtained from the EMSL Basis Set Exchange (bse.pnl.gov) Feb. 2017
                              C. Haettig, Phys. Chem. Chem. Phys. 7, 59 (2005)
                              F. Weigend, A. Kohn, C. Hattig, J. Chem. Phys. 116, 3175 (2002)
                         Kr : Obtained from the TURBOMOLE 7.0 basis set library
                              F. Weigend, A. Kohn, C. Hattig, J. Chem. Phys. 116, 3175 (2002)
                              S function revised in Sep. 2009

================================================================================
                                        WARNINGS
                       Please study these warnings very carefully!
================================================================================

WARNING: Old DensityContainer found on disk!
         Will remove this file - 
         If you want to keep old densities, please start your calculation with a different basename. 

WARNING: The globally-selected AuxJ basis set is optimized for use with ECPs
         Make sure a suitable alternative is explicitly given all heavy elements (Z>36)

WARNING: No MP2 level density has been requested!
         To calculate MP2 level properties use
         %mp2 Density relaxed end
         or
         %mp2 Density unrelaxed end

WARNING: Post HF methods need fully converged wavefunctions
  ===> : Setting SCFConvForced true
         You can overwrite this default with %scf ConvForced false 


WARNING: The chosen methods will break translational/rotational symmetry
  ===> : Will NOT project out the translational and rotational degrees of freedom
         of the Hessians, in case Hessians are calculated!

WARNING: The chosen methods will break translational symmetry
  ===> : Will NOT exploit translational invariance of the Hessians,
         in case Hessians are calculated!

WARNING: The chosen methods will break translational symmetry
  ===> : Will NOT make the numerical gradients translationally invariant,
         in case numerical gradients are calculated!

================================================================================
                                       INPUT FILE
================================================================================
NAME = orca.inp
|  1> ! TightSCF RI-MP2 RIJCOSX SlowConv DIIS 
|  2> %pal nprocs 8 end
|  3> %maxcore 25000
|  4> %pointcharges "orca.pc"
|  5> %method
|  6> Method hf
|  7> RI on
|  8> RunTyp Energy
|  9> NewNCore C 2 end
| 10> NewNCore Mg 10 end
| 11> NewNCore O 2 end
| 12> end
| 13> %basis
| 14> NewGTO C "aug-cc-pVDZ" end
| 15> NewGTO Mg "cc-pVDZ" end
| 16> NewGTO O "aug-cc-pVDZ" end
| 17> Aux "def2/J"
| 18> NewAuxCGTO C "aug-cc-pVDZ/C" end
| 19> NewAuxCGTO Mg "cc-pVDZ/C" end
| 20> NewAuxCGTO O "aug-cc-pVDZ/C" end
| 21> end
| 22> %scf
| 23> HFTyp rhf
| 24> SCFMode Direct
| 25> sthresh 1e-6
| 26> AutoTRAHIter 60
| 27> MaxIter 1000
| 28> end
| 29> %coords
| 30> CTyp xyz
| 31> Mult 1
| 32> Units angs
| 33> Charge -64
| 34> coords
| 35> C:                      0.00000000000    0.00000000000    2.44102235837
| 36> O:                      0.00000000000    0.00000000000    3.58784217303
| 37> Mg                      0.00000000000    0.00000000000    0.00000000000
| 38> O                      -2.12018425659    0.00000000000    0.00567209089
| 39> O                       0.00000000000    2.12018425659    0.00567209089
| 40> O                       2.12018425659    0.00000000000    0.00567209089
| 41> O                       0.00000000000   -2.12018425659    0.00567209089
| 42> O                       0.00000000000    0.00000000000   -2.14129966123
| 43> Mg                     -2.11144262254    2.11144262254   -0.04367284424
| 44> Mg                      2.11144262254    2.11144262254   -0.04367284424
| 45> Mg                      2.11144262254   -2.11144262254   -0.04367284424
| 46> Mg                     -2.11144262254   -2.11144262254   -0.04367284424
| 47> Mg                     -2.10705287155    0.00000000000   -2.14155206950
| 48> Mg                      0.00000000000    2.10705287155   -2.14155206950
| 49> Mg                      2.10705287155    0.00000000000   -2.14155206950
| 50> Mg                      0.00000000000   -2.10705287155   -2.14155206950
| 51> O                      -2.11070451449    2.11070451449   -2.14923989662
| 52> O                       2.11070451449    2.11070451449   -2.14923989662
| 53> O                       2.11070451449   -2.11070451449   -2.14923989662
| 54> O                      -2.11070451449   -2.11070451449   -2.14923989662
| 55> Mg                     -4.22049352791    0.00000000000   -0.04269731856
| 56> Mg                      0.00000000000    4.22049352791   -0.04269731856
| 57> Mg                      4.22049352791    0.00000000000   -0.04269731856
| 58> Mg                      0.00000000000   -4.22049352791   -0.04269731856
| 59> O                      -4.22049352791    2.11209139723    0.00772802266
| 60> O                      -2.11209139723    4.22049352791    0.00772802266
| 61> O                       2.11209139723    4.22049352791    0.00772802266
| 62> O                       4.22049352791    2.11209139723    0.00772802266
| 63> O                       4.22049352791   -2.11209139723    0.00772802266
| 64> O                       2.11209139723   -4.22049352791    0.00772802266
| 65> O                      -2.11209139723   -4.22049352791    0.00772802266
| 66> O                      -4.22049352791   -2.11209139723    0.00772802266
| 67> O                      -4.22049352791    0.00000000000   -2.15129719490
| 68> O                       0.00000000000    4.22049352791   -2.15129719490
| 69> O                       4.22049352791    0.00000000000   -2.15129719490
| 70> O                       0.00000000000   -4.22049352791   -2.15129719490
| 71> O                      -2.11024676395    0.00000000000   -4.26789528527
| 72> O                       0.00000000000    2.11024676395   -4.26789528527
| 73> O                       2.11024676395    0.00000000000   -4.26789528527
| 74> O                       0.00000000000   -2.11024676395   -4.26789528527
| 75> Mg                     -4.22049352791    2.10973412517   -2.14445912302
| 76> Mg                     -2.10973412517    4.22049352791   -2.14445912302
| 77> Mg                      2.10973412517    4.22049352791   -2.14445912302
| 78> Mg                      4.22049352791    2.10973412517   -2.14445912302
| 79> Mg                      4.22049352791   -2.10973412517   -2.14445912302
| 80> Mg                      2.10973412517   -4.22049352791   -2.14445912302
| 81> Mg                     -2.10973412517   -4.22049352791   -2.14445912302
| 82> Mg                     -4.22049352791   -2.10973412517   -2.14445912302
| 83> Mg                     -4.22049352791    4.22049352791   -0.03992370948
| 84> Mg                      4.22049352791    4.22049352791   -0.03992370948
| 85> Mg                      4.22049352791   -4.22049352791   -0.03992370948
| 86> Mg                     -4.22049352791   -4.22049352791   -0.03992370948
| 87> O                      -6.32080279923    0.00000000000    0.00567209089
| 88> O                       0.00000000000    6.32080279923    0.00567209089
| 89> O                       6.32080279923    0.00000000000    0.00567209089
| 90> O                       0.00000000000   -6.32080279923    0.00567209089
| 91> O                      -4.22049352791    4.22049352791   -2.15028985266
| 92> O                       4.22049352791    4.22049352791   -2.15028985266
| 93> O                       4.22049352791   -4.22049352791   -2.15028985266
| 94> O                      -4.22049352791   -4.22049352791   -2.15028985266
| 95> O                      -4.22049352791    2.11024676395   -4.26789528527
| 96> O                      -2.11024676395    4.22049352791   -4.26789528527
| 97> O                       2.11024676395    4.22049352791   -4.26789528527
| 98> O                       4.22049352791    2.11024676395   -4.26789528527
| 99> O                       4.22049352791   -2.11024676395   -4.26789528527
|100> O                       2.11024676395   -4.22049352791   -4.26789528527
|101> O                      -2.11024676395   -4.22049352791   -4.26789528527
|102> O                      -4.22049352791   -2.11024676395   -4.26789528527
|103> O                      -6.33028254133    2.11070451449   -2.14923989662
|104> O                      -2.11070451449    6.33028254133   -2.14923989662
|105> O                       2.11070451449    6.33028254133   -2.14923989662
|106> O                       6.33028254133    2.11070451449   -2.14923989662
|107> O                       6.33028254133   -2.11070451449   -2.14923989662
|108> O                       2.11070451449   -6.33028254133   -2.14923989662
|109> O                      -2.11070451449   -6.33028254133   -2.14923989662
|110> O                      -6.33028254133   -2.11070451449   -2.14923989662
|111> O                      -6.32889565859    4.22049352791    0.00772802266
|112> O                      -4.22049352791    6.32889565859    0.00772802266
|113> O                       4.22049352791    6.32889565859    0.00772802266
|114> O                       6.32889565859    4.22049352791    0.00772802266
|115> O                       6.32889565859   -4.22049352791    0.00772802266
|116> O                       4.22049352791   -6.32889565859    0.00772802266
|117> O                      -4.22049352791   -6.32889565859    0.00772802266
|118> O                      -6.32889565859   -4.22049352791    0.00772802266
|119> Mg>    2.00000000000    0.00000000000    0.00000000000   -4.26789528527
|120> NewECP
|121> N_core 0
|122> lmax f
|123> s 1
|124> 1      1.732000000   14.676000000 2
|125> p 1
|126> 1      1.115000000    5.175700000 2
|127> d 1
|128> 1      1.203000000   -1.816000000 2
|129> f 1
|130> 1      1.000000000    0.000000000 2
|131> end
|132> Mg>    2.00000000000   -2.11024676395    2.11024676395   -4.26789528527
|133> NewECP
|134> N_core 0
|135> lmax f
|136> s 1
|137> 1      1.732000000   14.676000000 2
|138> p 1
|139> 1      1.115000000    5.175700000 2
|140> d 1
|141> 1      1.203000000   -1.816000000 2
|142> f 1
|143> 1      1.000000000    0.000000000 2
|144> end
|145> Mg>    2.00000000000    2.11024676395    2.11024676395   -4.26789528527
|146> NewECP
|147> N_core 0
|148> lmax f
|149> s 1
|150> 1      1.732000000   14.676000000 2
|151> p 1
|152> 1      1.115000000    5.175700000 2
|153> d 1
|154> 1      1.203000000   -1.816000000 2
|155> f 1
|156> 1      1.000000000    0.000000000 2
|157> end
|158> Mg>    2.00000000000    2.11024676395   -2.11024676395   -4.26789528527
|159> NewECP
|160> N_core 0
|161> lmax f
|162> s 1
|163> 1      1.732000000   14.676000000 2
|164> p 1
|165> 1      1.115000000    5.175700000 2
|166> d 1
|167> 1      1.203000000   -1.816000000 2
|168> f 1
|169> 1      1.000000000    0.000000000 2
|170> end
|171> Mg>    2.00000000000   -2.11024676395   -2.11024676395   -4.26789528527
|172> NewECP
|173> N_core 0
|174> lmax f
|175> s 1
|176> 1      1.732000000   14.676000000 2
|177> p 1
|178> 1      1.115000000    5.175700000 2
|179> d 1
|180> 1      1.203000000   -1.816000000 2
|181> f 1
|182> 1      1.000000000    0.000000000 2
|183> end
|184> Mg>    2.00000000000   -4.22049352791    0.00000000000   -4.26789528527
|185> NewECP
|186> N_core 0
|187> lmax f
|188> s 1
|189> 1      1.732000000   14.676000000 2
|190> p 1
|191> 1      1.115000000    5.175700000 2
|192> d 1
|193> 1      1.203000000   -1.816000000 2
|194> f 1
|195> 1      1.000000000    0.000000000 2
|196> end
|197> Mg>    2.00000000000    0.00000000000    4.22049352791   -4.26789528527
|198> NewECP
|199> N_core 0
|200> lmax f
|201> s 1
|202> 1      1.732000000   14.676000000 2
|203> p 1
|204> 1      1.115000000    5.175700000 2
|205> d 1
|206> 1      1.203000000   -1.816000000 2
|207> f 1
|208> 1      1.000000000    0.000000000 2
|209> end
|210> Mg>    2.00000000000    4.22049352791    0.00000000000   -4.26789528527
|211> NewECP
|212> N_core 0
|213> lmax f
|214> s 1
|215> 1      1.732000000   14.676000000 2
|216> p 1
|217> 1      1.115000000    5.175700000 2
|218> d 1
|219> 1      1.203000000   -1.816000000 2
|220> f 1
|221> 1      1.000000000    0.000000000 2
|222> end
|223> Mg>    2.00000000000    0.00000000000   -4.22049352791   -4.26789528527
|224> NewECP
|225> N_core 0
|226> lmax f
|227> s 1
|228> 1      1.732000000   14.676000000 2
|229> p 1
|230> 1      1.115000000    5.175700000 2
|231> d 1
|232> 1      1.203000000   -1.816000000 2
|233> f 1
|234> 1      1.000000000    0.000000000 2
|235> end
|236> Mg>    2.00000000000   -6.32954443328    2.11144262254   -0.04367284424
|237> NewECP
|238> N_core 0
|239> lmax f
|240> s 1
|241> 1      1.732000000   14.676000000 2
|242> p 1
|243> 1      1.115000000    5.175700000 2
|244> d 1
|245> 1      1.203000000   -1.816000000 2
|246> f 1
|247> 1      1.000000000    0.000000000 2
|248> end
|249> Mg>    2.00000000000   -2.11144262254    6.32954443328   -0.04367284424
|250> NewECP
|251> N_core 0
|252> lmax f
|253> s 1
|254> 1      1.732000000   14.676000000 2
|255> p 1
|256> 1      1.115000000    5.175700000 2
|257> d 1
|258> 1      1.203000000   -1.816000000 2
|259> f 1
|260> 1      1.000000000    0.000000000 2
|261> end
|262> Mg>    2.00000000000    2.11144262254    6.32954443328   -0.04367284424
|263> NewECP
|264> N_core 0
|265> lmax f
|266> s 1
|267> 1      1.732000000   14.676000000 2
|268> p 1
|269> 1      1.115000000    5.175700000 2
|270> d 1
|271> 1      1.203000000   -1.816000000 2
|272> f 1
|273> 1      1.000000000    0.000000000 2
|274> end
|275> Mg>    2.00000000000    6.32954443328    2.11144262254   -0.04367284424
|276> NewECP
|277> N_core 0
|278> lmax f
|279> s 1
|280> 1      1.732000000   14.676000000 2
|281> p 1
|282> 1      1.115000000    5.175700000 2
|283> d 1
|284> 1      1.203000000   -1.816000000 2
|285> f 1
|286> 1      1.000000000    0.000000000 2
|287> end
|288> Mg>    2.00000000000    6.32954443328   -2.11144262254   -0.04367284424
|289> NewECP
|290> N_core 0
|291> lmax f
|292> s 1
|293> 1      1.732000000   14.676000000 2
|294> p 1
|295> 1      1.115000000    5.175700000 2
|296> d 1
|297> 1      1.203000000   -1.816000000 2
|298> f 1
|299> 1      1.000000000    0.000000000 2
|300> end
|301> Mg>    2.00000000000    2.11144262254   -6.32954443328   -0.04367284424
|302> NewECP
|303> N_core 0
|304> lmax f
|305> s 1
|306> 1      1.732000000   14.676000000 2
|307> p 1
|308> 1      1.115000000    5.175700000 2
|309> d 1
|310> 1      1.203000000   -1.816000000 2
|311> f 1
|312> 1      1.000000000    0.000000000 2
|313> end
|314> Mg>    2.00000000000   -2.11144262254   -6.32954443328   -0.04367284424
|315> NewECP
|316> N_core 0
|317> lmax f
|318> s 1
|319> 1      1.732000000   14.676000000 2
|320> p 1
|321> 1      1.115000000    5.175700000 2
|322> d 1
|323> 1      1.203000000   -1.816000000 2
|324> f 1
|325> 1      1.000000000    0.000000000 2
|326> end
|327> Mg>    2.00000000000   -6.32954443328   -2.11144262254   -0.04367284424
|328> NewECP
|329> N_core 0
|330> lmax f
|331> s 1
|332> 1      1.732000000   14.676000000 2
|333> p 1
|334> 1      1.115000000    5.175700000 2
|335> d 1
|336> 1      1.203000000   -1.816000000 2
|337> f 1
|338> 1      1.000000000    0.000000000 2
|339> end
|340> Mg>    2.00000000000   -6.33393418427    0.00000000000   -2.14155206950
|341> NewECP
|342> N_core 0
|343> lmax f
|344> s 1
|345> 1      1.732000000   14.676000000 2
|346> p 1
|347> 1      1.115000000    5.175700000 2
|348> d 1
|349> 1      1.203000000   -1.816000000 2
|350> f 1
|351> 1      1.000000000    0.000000000 2
|352> end
|353> Mg>    2.00000000000    0.00000000000    6.33393418427   -2.14155206950
|354> NewECP
|355> N_core 0
|356> lmax f
|357> s 1
|358> 1      1.732000000   14.676000000 2
|359> p 1
|360> 1      1.115000000    5.175700000 2
|361> d 1
|362> 1      1.203000000   -1.816000000 2
|363> f 1
|364> 1      1.000000000    0.000000000 2
|365> end
|366> Mg>    2.00000000000    6.33393418427    0.00000000000   -2.14155206950
|367> NewECP
|368> N_core 0
|369> lmax f
|370> s 1
|371> 1      1.732000000   14.676000000 2
|372> p 1
|373> 1      1.115000000    5.175700000 2
|374> d 1
|375> 1      1.203000000   -1.816000000 2
|376> f 1
|377> 1      1.000000000    0.000000000 2
|378> end
|379> Mg>    2.00000000000    0.00000000000   -6.33393418427   -2.14155206950
|380> NewECP
|381> N_core 0
|382> lmax f
|383> s 1
|384> 1      1.732000000   14.676000000 2
|385> p 1
|386> 1      1.115000000    5.175700000 2
|387> d 1
|388> 1      1.203000000   -1.816000000 2
|389> f 1
|390> 1      1.000000000    0.000000000 2
|391> end
|392> Mg>    2.00000000000   -2.11024676395    0.00000000000   -6.37814204923
|393> NewECP
|394> N_core 0
|395> lmax f
|396> s 1
|397> 1      1.732000000   14.676000000 2
|398> p 1
|399> 1      1.115000000    5.175700000 2
|400> d 1
|401> 1      1.203000000   -1.816000000 2
|402> f 1
|403> 1      1.000000000    0.000000000 2
|404> end
|405> Mg>    2.00000000000    0.00000000000    2.11024676395   -6.37814204923
|406> NewECP
|407> N_core 0
|408> lmax f
|409> s 1
|410> 1      1.732000000   14.676000000 2
|411> p 1
|412> 1      1.115000000    5.175700000 2
|413> d 1
|414> 1      1.203000000   -1.816000000 2
|415> f 1
|416> 1      1.000000000    0.000000000 2
|417> end
|418> Mg>    2.00000000000    2.11024676395    0.00000000000   -6.37814204923
|419> NewECP
|420> N_core 0
|421> lmax f
|422> s 1
|423> 1      1.732000000   14.676000000 2
|424> p 1
|425> 1      1.115000000    5.175700000 2
|426> d 1
|427> 1      1.203000000   -1.816000000 2
|428> f 1
|429> 1      1.000000000    0.000000000 2
|430> end
|431> Mg>    2.00000000000    0.00000000000   -2.11024676395   -6.37814204923
|432> NewECP
|433> N_core 0
|434> lmax f
|435> s 1
|436> 1      1.732000000   14.676000000 2
|437> p 1
|438> 1      1.115000000    5.175700000 2
|439> d 1
|440> 1      1.203000000   -1.816000000 2
|441> f 1
|442> 1      1.000000000    0.000000000 2
|443> end
|444> Mg>    2.00000000000   -4.22049352791    4.22049352791   -4.26789528527
|445> NewECP
|446> N_core 0
|447> lmax f
|448> s 1
|449> 1      1.732000000   14.676000000 2
|450> p 1
|451> 1      1.115000000    5.175700000 2
|452> d 1
|453> 1      1.203000000   -1.816000000 2
|454> f 1
|455> 1      1.000000000    0.000000000 2
|456> end
|457> Mg>    2.00000000000    4.22049352791    4.22049352791   -4.26789528527
|458> NewECP
|459> N_core 0
|460> lmax f
|461> s 1
|462> 1      1.732000000   14.676000000 2
|463> p 1
|464> 1      1.115000000    5.175700000 2
|465> d 1
|466> 1      1.203000000   -1.816000000 2
|467> f 1
|468> 1      1.000000000    0.000000000 2
|469> end
|470> Mg>    2.00000000000    4.22049352791   -4.22049352791   -4.26789528527
|471> NewECP
|472> N_core 0
|473> lmax f
|474> s 1
|475> 1      1.732000000   14.676000000 2
|476> p 1
|477> 1      1.115000000    5.175700000 2
|478> d 1
|479> 1      1.203000000   -1.816000000 2
|480> f 1
|481> 1      1.000000000    0.000000000 2
|482> end
|483> Mg>    2.00000000000   -4.22049352791   -4.22049352791   -4.26789528527
|484> NewECP
|485> N_core 0
|486> lmax f
|487> s 1
|488> 1      1.732000000   14.676000000 2
|489> p 1
|490> 1      1.115000000    5.175700000 2
|491> d 1
|492> 1      1.203000000   -1.816000000 2
|493> f 1
|494> 1      1.000000000    0.000000000 2
|495> end
|496> Mg>    2.00000000000   -6.33125293065    4.22049352791   -2.14445912302
|497> NewECP
|498> N_core 0
|499> lmax f
|500> s 1
|501> 1      1.732000000   14.676000000 2
|502> p 1
|503> 1      1.115000000    5.175700000 2
|504> d 1
|505> 1      1.203000000   -1.816000000 2
|506> f 1
|507> 1      1.000000000    0.000000000 2
|508> end
|509> Mg>    2.00000000000   -4.22049352791    6.33125293065   -2.14445912302
|510> NewECP
|511> N_core 0
|512> lmax f
|513> s 1
|514> 1      1.732000000   14.676000000 2
|515> p 1
|516> 1      1.115000000    5.175700000 2
|517> d 1
|518> 1      1.203000000   -1.816000000 2
|519> f 1
|520> 1      1.000000000    0.000000000 2
|521> end
|522> Mg>    2.00000000000    4.22049352791    6.33125293065   -2.14445912302
|523> NewECP
|524> N_core 0
|525> lmax f
|526> s 1
|527> 1      1.732000000   14.676000000 2
|528> p 1
|529> 1      1.115000000    5.175700000 2
|530> d 1
|531> 1      1.203000000   -1.816000000 2
|532> f 1
|533> 1      1.000000000    0.000000000 2
|534> end
|535> Mg>    2.00000000000    6.33125293065    4.22049352791   -2.14445912302
|536> NewECP
|537> N_core 0
|538> lmax f
|539> s 1
|540> 1      1.732000000   14.676000000 2
|541> p 1
|542> 1      1.115000000    5.175700000 2
|543> d 1
|544> 1      1.203000000   -1.816000000 2
|545> f 1
|546> 1      1.000000000    0.000000000 2
|547> end
|548> Mg>    2.00000000000    6.33125293065   -4.22049352791   -2.14445912302
|549> NewECP
|550> N_core 0
|551> lmax f
|552> s 1
|553> 1      1.732000000   14.676000000 2
|554> p 1
|555> 1      1.115000000    5.175700000 2
|556> d 1
|557> 1      1.203000000   -1.816000000 2
|558> f 1
|559> 1      1.000000000    0.000000000 2
|560> end
|561> Mg>    2.00000000000    4.22049352791   -6.33125293065   -2.14445912302
|562> NewECP
|563> N_core 0
|564> lmax f
|565> s 1
|566> 1      1.732000000   14.676000000 2
|567> p 1
|568> 1      1.115000000    5.175700000 2
|569> d 1
|570> 1      1.203000000   -1.816000000 2
|571> f 1
|572> 1      1.000000000    0.000000000 2
|573> end
|574> Mg>    2.00000000000   -4.22049352791   -6.33125293065   -2.14445912302
|575> NewECP
|576> N_core 0
|577> lmax f
|578> s 1
|579> 1      1.732000000   14.676000000 2
|580> p 1
|581> 1      1.115000000    5.175700000 2
|582> d 1
|583> 1      1.203000000   -1.816000000 2
|584> f 1
|585> 1      1.000000000    0.000000000 2
|586> end
|587> Mg>    2.00000000000   -6.33125293065   -4.22049352791   -2.14445912302
|588> NewECP
|589> N_core 0
|590> lmax f
|591> s 1
|592> 1      1.732000000   14.676000000 2
|593> p 1
|594> 1      1.115000000    5.175700000 2
|595> d 1
|596> 1      1.203000000   -1.816000000 2
|597> f 1
|598> 1      1.000000000    0.000000000 2
|599> end
|600> Mg>    2.00000000000   -6.33074029186    2.11024676395   -4.26789528527
|601> NewECP
|602> N_core 0
|603> lmax f
|604> s 1
|605> 1      1.732000000   14.676000000 2
|606> p 1
|607> 1      1.115000000    5.175700000 2
|608> d 1
|609> 1      1.203000000   -1.816000000 2
|610> f 1
|611> 1      1.000000000    0.000000000 2
|612> end
|613> Mg>    2.00000000000   -2.11024676395    6.33074029186   -4.26789528527
|614> NewECP
|615> N_core 0
|616> lmax f
|617> s 1
|618> 1      1.732000000   14.676000000 2
|619> p 1
|620> 1      1.115000000    5.175700000 2
|621> d 1
|622> 1      1.203000000   -1.816000000 2
|623> f 1
|624> 1      1.000000000    0.000000000 2
|625> end
|626> Mg>    2.00000000000    2.11024676395    6.33074029186   -4.26789528527
|627> NewECP
|628> N_core 0
|629> lmax f
|630> s 1
|631> 1      1.732000000   14.676000000 2
|632> p 1
|633> 1      1.115000000    5.175700000 2
|634> d 1
|635> 1      1.203000000   -1.816000000 2
|636> f 1
|637> 1      1.000000000    0.000000000 2
|638> end
|639> Mg>    2.00000000000    6.33074029186    2.11024676395   -4.26789528527
|640> NewECP
|641> N_core 0
|642> lmax f
|643> s 1
|644> 1      1.732000000   14.676000000 2
|645> p 1
|646> 1      1.115000000    5.175700000 2
|647> d 1
|648> 1      1.203000000   -1.816000000 2
|649> f 1
|650> 1      1.000000000    0.000000000 2
|651> end
|652> Mg>    2.00000000000    6.33074029186   -2.11024676395   -4.26789528527
|653> NewECP
|654> N_core 0
|655> lmax f
|656> s 1
|657> 1      1.732000000   14.676000000 2
|658> p 1
|659> 1      1.115000000    5.175700000 2
|660> d 1
|661> 1      1.203000000   -1.816000000 2
|662> f 1
|663> 1      1.000000000    0.000000000 2
|664> end
|665> Mg>    2.00000000000    2.11024676395   -6.33074029186   -4.26789528527
|666> NewECP
|667> N_core 0
|668> lmax f
|669> s 1
|670> 1      1.732000000   14.676000000 2
|671> p 1
|672> 1      1.115000000    5.175700000 2
|673> d 1
|674> 1      1.203000000   -1.816000000 2
|675> f 1
|676> 1      1.000000000    0.000000000 2
|677> end
|678> Mg>    2.00000000000   -2.11024676395   -6.33074029186   -4.26789528527
|679> NewECP
|680> N_core 0
|681> lmax f
|682> s 1
|683> 1      1.732000000   14.676000000 2
|684> p 1
|685> 1      1.115000000    5.175700000 2
|686> d 1
|687> 1      1.203000000   -1.816000000 2
|688> f 1
|689> 1      1.000000000    0.000000000 2
|690> end
|691> Mg>    2.00000000000   -6.33074029186   -2.11024676395   -4.26789528527
|692> NewECP
|693> N_core 0
|694> lmax f
|695> s 1
|696> 1      1.732000000   14.676000000 2
|697> p 1
|698> 1      1.115000000    5.175700000 2
|699> d 1
|700> 1      1.203000000   -1.816000000 2
|701> f 1
|702> 1      1.000000000    0.000000000 2
|703> end
|704> Mg>    2.00000000000   -4.22049352791    2.11024676395   -6.37814204923
|705> NewECP
|706> N_core 0
|707> lmax f
|708> s 1
|709> 1      1.732000000   14.676000000 2
|710> p 1
|711> 1      1.115000000    5.175700000 2
|712> d 1
|713> 1      1.203000000   -1.816000000 2
|714> f 1
|715> 1      1.000000000    0.000000000 2
|716> end
|717> Mg>    2.00000000000   -2.11024676395    4.22049352791   -6.37814204923
|718> NewECP
|719> N_core 0
|720> lmax f
|721> s 1
|722> 1      1.732000000   14.676000000 2
|723> p 1
|724> 1      1.115000000    5.175700000 2
|725> d 1
|726> 1      1.203000000   -1.816000000 2
|727> f 1
|728> 1      1.000000000    0.000000000 2
|729> end
|730> Mg>    2.00000000000    2.11024676395    4.22049352791   -6.37814204923
|731> NewECP
|732> N_core 0
|733> lmax f
|734> s 1
|735> 1      1.732000000   14.676000000 2
|736> p 1
|737> 1      1.115000000    5.175700000 2
|738> d 1
|739> 1      1.203000000   -1.816000000 2
|740> f 1
|741> 1      1.000000000    0.000000000 2
|742> end
|743> Mg>    2.00000000000    4.22049352791    2.11024676395   -6.37814204923
|744> NewECP
|745> N_core 0
|746> lmax f
|747> s 1
|748> 1      1.732000000   14.676000000 2
|749> p 1
|750> 1      1.115000000    5.175700000 2
|751> d 1
|752> 1      1.203000000   -1.816000000 2
|753> f 1
|754> 1      1.000000000    0.000000000 2
|755> end
|756> Mg>    2.00000000000    4.22049352791   -2.11024676395   -6.37814204923
|757> NewECP
|758> N_core 0
|759> lmax f
|760> s 1
|761> 1      1.732000000   14.676000000 2
|762> p 1
|763> 1      1.115000000    5.175700000 2
|764> d 1
|765> 1      1.203000000   -1.816000000 2
|766> f 1
|767> 1      1.000000000    0.000000000 2
|768> end
|769> Mg>    2.00000000000    2.11024676395   -4.22049352791   -6.37814204923
|770> NewECP
|771> N_core 0
|772> lmax f
|773> s 1
|774> 1      1.732000000   14.676000000 2
|775> p 1
|776> 1      1.115000000    5.175700000 2
|777> d 1
|778> 1      1.203000000   -1.816000000 2
|779> f 1
|780> 1      1.000000000    0.000000000 2
|781> end
|782> Mg>    2.00000000000   -2.11024676395   -4.22049352791   -6.37814204923
|783> NewECP
|784> N_core 0
|785> lmax f
|786> s 1
|787> 1      1.732000000   14.676000000 2
|788> p 1
|789> 1      1.115000000    5.175700000 2
|790> d 1
|791> 1      1.203000000   -1.816000000 2
|792> f 1
|793> 1      1.000000000    0.000000000 2
|794> end
|795> Mg>    2.00000000000   -4.22049352791   -2.11024676395   -6.37814204923
|796> NewECP
|797> N_core 0
|798> lmax f
|799> s 1
|800> 1      1.732000000   14.676000000 2
|801> p 1
|802> 1      1.115000000    5.175700000 2
|803> d 1
|804> 1      1.203000000   -1.816000000 2
|805> f 1
|806> 1      1.000000000    0.000000000 2
|807> end
|808> Mg>    2.00000000000   -8.44098705582    0.00000000000    0.00000000000
|809> NewECP
|810> N_core 0
|811> lmax f
|812> s 1
|813> 1      1.732000000   14.676000000 2
|814> p 1
|815> 1      1.115000000    5.175700000 2
|816> d 1
|817> 1      1.203000000   -1.816000000 2
|818> f 1
|819> 1      1.000000000    0.000000000 2
|820> end
|821> Mg>    2.00000000000    0.00000000000    8.44098705582    0.00000000000
|822> NewECP
|823> N_core 0
|824> lmax f
|825> s 1
|826> 1      1.732000000   14.676000000 2
|827> p 1
|828> 1      1.115000000    5.175700000 2
|829> d 1
|830> 1      1.203000000   -1.816000000 2
|831> f 1
|832> 1      1.000000000    0.000000000 2
|833> end
|834> Mg>    2.00000000000    8.44098705582    0.00000000000    0.00000000000
|835> NewECP
|836> N_core 0
|837> lmax f
|838> s 1
|839> 1      1.732000000   14.676000000 2
|840> p 1
|841> 1      1.115000000    5.175700000 2
|842> d 1
|843> 1      1.203000000   -1.816000000 2
|844> f 1
|845> 1      1.000000000    0.000000000 2
|846> end
|847> Mg>    2.00000000000    0.00000000000   -8.44098705582    0.00000000000
|848> NewECP
|849> N_core 0
|850> lmax f
|851> s 1
|852> 1      1.732000000   14.676000000 2
|853> p 1
|854> 1      1.115000000    5.175700000 2
|855> d 1
|856> 1      1.203000000   -1.816000000 2
|857> f 1
|858> 1      1.000000000    0.000000000 2
|859> end
|860> Mg>    2.00000000000   -6.32954443328    6.32954443328   -0.04367284424
|861> NewECP
|862> N_core 0
|863> lmax f
|864> s 1
|865> 1      1.732000000   14.676000000 2
|866> p 1
|867> 1      1.115000000    5.175700000 2
|868> d 1
|869> 1      1.203000000   -1.816000000 2
|870> f 1
|871> 1      1.000000000    0.000000000 2
|872> end
|873> Mg>    2.00000000000    6.32954443328    6.32954443328   -0.04367284424
|874> NewECP
|875> N_core 0
|876> lmax f
|877> s 1
|878> 1      1.732000000   14.676000000 2
|879> p 1
|880> 1      1.115000000    5.175700000 2
|881> d 1
|882> 1      1.203000000   -1.816000000 2
|883> f 1
|884> 1      1.000000000    0.000000000 2
|885> end
|886> Mg>    2.00000000000    6.32954443328   -6.32954443328   -0.04367284424
|887> NewECP
|888> N_core 0
|889> lmax f
|890> s 1
|891> 1      1.732000000   14.676000000 2
|892> p 1
|893> 1      1.115000000    5.175700000 2
|894> d 1
|895> 1      1.203000000   -1.816000000 2
|896> f 1
|897> 1      1.000000000    0.000000000 2
|898> end
|899> Mg>    2.00000000000   -6.32954443328   -6.32954443328   -0.04367284424
|900> NewECP
|901> N_core 0
|902> lmax f
|903> s 1
|904> 1      1.732000000   14.676000000 2
|905> p 1
|906> 1      1.115000000    5.175700000 2
|907> d 1
|908> 1      1.203000000   -1.816000000 2
|909> f 1
|910> 1      1.000000000    0.000000000 2
|911> end
|912> Mg>    2.00000000000   -8.44098705582    2.10705287155   -2.14155206950
|913> NewECP
|914> N_core 0
|915> lmax f
|916> s 1
|917> 1      1.732000000   14.676000000 2
|918> p 1
|919> 1      1.115000000    5.175700000 2
|920> d 1
|921> 1      1.203000000   -1.816000000 2
|922> f 1
|923> 1      1.000000000    0.000000000 2
|924> end
|925> Mg>    2.00000000000   -2.10705287155    8.44098705582   -2.14155206950
|926> NewECP
|927> N_core 0
|928> lmax f
|929> s 1
|930> 1      1.732000000   14.676000000 2
|931> p 1
|932> 1      1.115000000    5.175700000 2
|933> d 1
|934> 1      1.203000000   -1.816000000 2
|935> f 1
|936> 1      1.000000000    0.000000000 2
|937> end
|938> Mg>    2.00000000000    2.10705287155    8.44098705582   -2.14155206950
|939> NewECP
|940> N_core 0
|941> lmax f
|942> s 1
|943> 1      1.732000000   14.676000000 2
|944> p 1
|945> 1      1.115000000    5.175700000 2
|946> d 1
|947> 1      1.203000000   -1.816000000 2
|948> f 1
|949> 1      1.000000000    0.000000000 2
|950> end
|951> Mg>    2.00000000000    8.44098705582    2.10705287155   -2.14155206950
|952> NewECP
|953> N_core 0
|954> lmax f
|955> s 1
|956> 1      1.732000000   14.676000000 2
|957> p 1
|958> 1      1.115000000    5.175700000 2
|959> d 1
|960> 1      1.203000000   -1.816000000 2
|961> f 1
|962> 1      1.000000000    0.000000000 2
|963> end
|964> Mg>    2.00000000000    8.44098705582   -2.10705287155   -2.14155206950
|965> NewECP
|966> N_core 0
|967> lmax f
|968> s 1
|969> 1      1.732000000   14.676000000 2
|970> p 1
|971> 1      1.115000000    5.175700000 2
|972> d 1
|973> 1      1.203000000   -1.816000000 2
|974> f 1
|975> 1      1.000000000    0.000000000 2
|976> end
|977> Mg>    2.00000000000    2.10705287155   -8.44098705582   -2.14155206950
|978> NewECP
|979> N_core 0
|980> lmax f
|981> s 1
|982> 1      1.732000000   14.676000000 2
|983> p 1
|984> 1      1.115000000    5.175700000 2
|985> d 1
|986> 1      1.203000000   -1.816000000 2
|987> f 1
|988> 1      1.000000000    0.000000000 2
|989> end
|990> Mg>    2.00000000000   -2.10705287155   -8.44098705582   -2.14155206950
|991> NewECP
|992> N_core 0
|993> lmax f
|994> s 1
|995> 1      1.732000000   14.676000000 2
|996> p 1
|997> 1      1.115000000    5.175700000 2
|998> d 1
|999> 1      1.203000000   -1.816000000 2
|1000> f 1
|1001> 1      1.000000000    0.000000000 2
|1002> end
|1003> Mg>    2.00000000000   -8.44098705582   -2.10705287155   -2.14155206950
|1004> NewECP
|1005> N_core 0
|1006> lmax f
|1007> s 1
|1008> 1      1.732000000   14.676000000 2
|1009> p 1
|1010> 1      1.115000000    5.175700000 2
|1011> d 1
|1012> 1      1.203000000   -1.816000000 2
|1013> f 1
|1014> 1      1.000000000    0.000000000 2
|1015> end
|1016> Mg>    2.00000000000   -6.33074029186    0.00000000000   -6.37814204923
|1017> NewECP
|1018> N_core 0
|1019> lmax f
|1020> s 1
|1021> 1      1.732000000   14.676000000 2
|1022> p 1
|1023> 1      1.115000000    5.175700000 2
|1024> d 1
|1025> 1      1.203000000   -1.816000000 2
|1026> f 1
|1027> 1      1.000000000    0.000000000 2
|1028> end
|1029> Mg>    2.00000000000    0.00000000000    6.33074029186   -6.37814204923
|1030> NewECP
|1031> N_core 0
|1032> lmax f
|1033> s 1
|1034> 1      1.732000000   14.676000000 2
|1035> p 1
|1036> 1      1.115000000    5.175700000 2
|1037> d 1
|1038> 1      1.203000000   -1.816000000 2
|1039> f 1
|1040> 1      1.000000000    0.000000000 2
|1041> end
|1042> Mg>    2.00000000000    6.33074029186    0.00000000000   -6.37814204923
|1043> NewECP
|1044> N_core 0
|1045> lmax f
|1046> s 1
|1047> 1      1.732000000   14.676000000 2
|1048> p 1
|1049> 1      1.115000000    5.175700000 2
|1050> d 1
|1051> 1      1.203000000   -1.816000000 2
|1052> f 1
|1053> 1      1.000000000    0.000000000 2
|1054> end
|1055> Mg>    2.00000000000    0.00000000000   -6.33074029186   -6.37814204923
|1056> NewECP
|1057> N_core 0
|1058> lmax f
|1059> s 1
|1060> 1      1.732000000   14.676000000 2
|1061> p 1
|1062> 1      1.115000000    5.175700000 2
|1063> d 1
|1064> 1      1.203000000   -1.816000000 2
|1065> f 1
|1066> 1      1.000000000    0.000000000 2
|1067> end
|1068> Mg>    2.00000000000   -8.44098705582    4.22049352791   -0.04269731856
|1069> NewECP
|1070> N_core 0
|1071> lmax f
|1072> s 1
|1073> 1      1.732000000   14.676000000 2
|1074> p 1
|1075> 1      1.115000000    5.175700000 2
|1076> d 1
|1077> 1      1.203000000   -1.816000000 2
|1078> f 1
|1079> 1      1.000000000    0.000000000 2
|1080> end
|1081> Mg>    2.00000000000   -4.22049352791    8.44098705582   -0.04269731856
|1082> NewECP
|1083> N_core 0
|1084> lmax f
|1085> s 1
|1086> 1      1.732000000   14.676000000 2
|1087> p 1
|1088> 1      1.115000000    5.175700000 2
|1089> d 1
|1090> 1      1.203000000   -1.816000000 2
|1091> f 1
|1092> 1      1.000000000    0.000000000 2
|1093> end
|1094> Mg>    2.00000000000    4.22049352791    8.44098705582   -0.04269731856
|1095> NewECP
|1096> N_core 0
|1097> lmax f
|1098> s 1
|1099> 1      1.732000000   14.676000000 2
|1100> p 1
|1101> 1      1.115000000    5.175700000 2
|1102> d 1
|1103> 1      1.203000000   -1.816000000 2
|1104> f 1
|1105> 1      1.000000000    0.000000000 2
|1106> end
|1107> Mg>    2.00000000000    8.44098705582    4.22049352791   -0.04269731856
|1108> NewECP
|1109> N_core 0
|1110> lmax f
|1111> s 1
|1112> 1      1.732000000   14.676000000 2
|1113> p 1
|1114> 1      1.115000000    5.175700000 2
|1115> d 1
|1116> 1      1.203000000   -1.816000000 2
|1117> f 1
|1118> 1      1.000000000    0.000000000 2
|1119> end
|1120> Mg>    2.00000000000    8.44098705582   -4.22049352791   -0.04269731856
|1121> NewECP
|1122> N_core 0
|1123> lmax f
|1124> s 1
|1125> 1      1.732000000   14.676000000 2
|1126> p 1
|1127> 1      1.115000000    5.175700000 2
|1128> d 1
|1129> 1      1.203000000   -1.816000000 2
|1130> f 1
|1131> 1      1.000000000    0.000000000 2
|1132> end
|1133> Mg>    2.00000000000    4.22049352791   -8.44098705582   -0.04269731856
|1134> NewECP
|1135> N_core 0
|1136> lmax f
|1137> s 1
|1138> 1      1.732000000   14.676000000 2
|1139> p 1
|1140> 1      1.115000000    5.175700000 2
|1141> d 1
|1142> 1      1.203000000   -1.816000000 2
|1143> f 1
|1144> 1      1.000000000    0.000000000 2
|1145> end
|1146> Mg>    2.00000000000   -4.22049352791   -8.44098705582   -0.04269731856
|1147> NewECP
|1148> N_core 0
|1149> lmax f
|1150> s 1
|1151> 1      1.732000000   14.676000000 2
|1152> p 1
|1153> 1      1.115000000    5.175700000 2
|1154> d 1
|1155> 1      1.203000000   -1.816000000 2
|1156> f 1
|1157> 1      1.000000000    0.000000000 2
|1158> end
|1159> Mg>    2.00000000000   -8.44098705582   -4.22049352791   -0.04269731856
|1160> NewECP
|1161> N_core 0
|1162> lmax f
|1163> s 1
|1164> 1      1.732000000   14.676000000 2
|1165> p 1
|1166> 1      1.115000000    5.175700000 2
|1167> d 1
|1168> 1      1.203000000   -1.816000000 2
|1169> f 1
|1170> 1      1.000000000    0.000000000 2
|1171> end
|1172> Mg>    2.00000000000   -8.44098705582    0.00000000000   -4.26789528527
|1173> NewECP
|1174> N_core 0
|1175> lmax f
|1176> s 1
|1177> 1      1.732000000   14.676000000 2
|1178> p 1
|1179> 1      1.115000000    5.175700000 2
|1180> d 1
|1181> 1      1.203000000   -1.816000000 2
|1182> f 1
|1183> 1      1.000000000    0.000000000 2
|1184> end
|1185> Mg>    2.00000000000    0.00000000000    8.44098705582   -4.26789528527
|1186> NewECP
|1187> N_core 0
|1188> lmax f
|1189> s 1
|1190> 1      1.732000000   14.676000000 2
|1191> p 1
|1192> 1      1.115000000    5.175700000 2
|1193> d 1
|1194> 1      1.203000000   -1.816000000 2
|1195> f 1
|1196> 1      1.000000000    0.000000000 2
|1197> end
|1198> Mg>    2.00000000000    8.44098705582    0.00000000000   -4.26789528527
|1199> NewECP
|1200> N_core 0
|1201> lmax f
|1202> s 1
|1203> 1      1.732000000   14.676000000 2
|1204> p 1
|1205> 1      1.115000000    5.175700000 2
|1206> d 1
|1207> 1      1.203000000   -1.816000000 2
|1208> f 1
|1209> 1      1.000000000    0.000000000 2
|1210> end
|1211> Mg>    2.00000000000    0.00000000000   -8.44098705582   -4.26789528527
|1212> NewECP
|1213> N_core 0
|1214> lmax f
|1215> s 1
|1216> 1      1.732000000   14.676000000 2
|1217> p 1
|1218> 1      1.115000000    5.175700000 2
|1219> d 1
|1220> 1      1.203000000   -1.816000000 2
|1221> f 1
|1222> 1      1.000000000    0.000000000 2
|1223> end
|1224> Mg>    2.00000000000   -6.33074029186    6.33074029186   -4.26789528527
|1225> NewECP
|1226> N_core 0
|1227> lmax f
|1228> s 1
|1229> 1      1.732000000   14.676000000 2
|1230> p 1
|1231> 1      1.115000000    5.175700000 2
|1232> d 1
|1233> 1      1.203000000   -1.816000000 2
|1234> f 1
|1235> 1      1.000000000    0.000000000 2
|1236> end
|1237> Mg>    2.00000000000    6.33074029186    6.33074029186   -4.26789528527
|1238> NewECP
|1239> N_core 0
|1240> lmax f
|1241> s 1
|1242> 1      1.732000000   14.676000000 2
|1243> p 1
|1244> 1      1.115000000    5.175700000 2
|1245> d 1
|1246> 1      1.203000000   -1.816000000 2
|1247> f 1
|1248> 1      1.000000000    0.000000000 2
|1249> end
|1250> Mg>    2.00000000000    6.33074029186   -6.33074029186   -4.26789528527
|1251> NewECP
|1252> N_core 0
|1253> lmax f
|1254> s 1
|1255> 1      1.732000000   14.676000000 2
|1256> p 1
|1257> 1      1.115000000    5.175700000 2
|1258> d 1
|1259> 1      1.203000000   -1.816000000 2
|1260> f 1
|1261> 1      1.000000000    0.000000000 2
|1262> end
|1263> Mg>    2.00000000000   -6.33074029186   -6.33074029186   -4.26789528527
|1264> NewECP
|1265> N_core 0
|1266> lmax f
|1267> s 1
|1268> 1      1.732000000   14.676000000 2
|1269> p 1
|1270> 1      1.115000000    5.175700000 2
|1271> d 1
|1272> 1      1.203000000   -1.816000000 2
|1273> f 1
|1274> 1      1.000000000    0.000000000 2
|1275> end
|1276> Mg>    2.00000000000   -6.33074029186    4.22049352791   -6.37814204923
|1277> NewECP
|1278> N_core 0
|1279> lmax f
|1280> s 1
|1281> 1      1.732000000   14.676000000 2
|1282> p 1
|1283> 1      1.115000000    5.175700000 2
|1284> d 1
|1285> 1      1.203000000   -1.816000000 2
|1286> f 1
|1287> 1      1.000000000    0.000000000 2
|1288> end
|1289> Mg>    2.00000000000   -4.22049352791    6.33074029186   -6.37814204923
|1290> NewECP
|1291> N_core 0
|1292> lmax f
|1293> s 1
|1294> 1      1.732000000   14.676000000 2
|1295> p 1
|1296> 1      1.115000000    5.175700000 2
|1297> d 1
|1298> 1      1.203000000   -1.816000000 2
|1299> f 1
|1300> 1      1.000000000    0.000000000 2
|1301> end
|1302> Mg>    2.00000000000    4.22049352791    6.33074029186   -6.37814204923
|1303> NewECP
|1304> N_core 0
|1305> lmax f
|1306> s 1
|1307> 1      1.732000000   14.676000000 2
|1308> p 1
|1309> 1      1.115000000    5.175700000 2
|1310> d 1
|1311> 1      1.203000000   -1.816000000 2
|1312> f 1
|1313> 1      1.000000000    0.000000000 2
|1314> end
|1315> Mg>    2.00000000000    6.33074029186    4.22049352791   -6.37814204923
|1316> NewECP
|1317> N_core 0
|1318> lmax f
|1319> s 1
|1320> 1      1.732000000   14.676000000 2
|1321> p 1
|1322> 1      1.115000000    5.175700000 2
|1323> d 1
|1324> 1      1.203000000   -1.816000000 2
|1325> f 1
|1326> 1      1.000000000    0.000000000 2
|1327> end
|1328> Mg>    2.00000000000    6.33074029186   -4.22049352791   -6.37814204923
|1329> NewECP
|1330> N_core 0
|1331> lmax f
|1332> s 1
|1333> 1      1.732000000   14.676000000 2
|1334> p 1
|1335> 1      1.115000000    5.175700000 2
|1336> d 1
|1337> 1      1.203000000   -1.816000000 2
|1338> f 1
|1339> 1      1.000000000    0.000000000 2
|1340> end
|1341> Mg>    2.00000000000    4.22049352791   -6.33074029186   -6.37814204923
|1342> NewECP
|1343> N_core 0
|1344> lmax f
|1345> s 1
|1346> 1      1.732000000   14.676000000 2
|1347> p 1
|1348> 1      1.115000000    5.175700000 2
|1349> d 1
|1350> 1      1.203000000   -1.816000000 2
|1351> f 1
|1352> 1      1.000000000    0.000000000 2
|1353> end
|1354> Mg>    2.00000000000   -4.22049352791   -6.33074029186   -6.37814204923
|1355> NewECP
|1356> N_core 0
|1357> lmax f
|1358> s 1
|1359> 1      1.732000000   14.676000000 2
|1360> p 1
|1361> 1      1.115000000    5.175700000 2
|1362> d 1
|1363> 1      1.203000000   -1.816000000 2
|1364> f 1
|1365> 1      1.000000000    0.000000000 2
|1366> end
|1367> Mg>    2.00000000000   -6.33074029186   -4.22049352791   -6.37814204923
|1368> NewECP
|1369> N_core 0
|1370> lmax f
|1371> s 1
|1372> 1      1.732000000   14.676000000 2
|1373> p 1
|1374> 1      1.115000000    5.175700000 2
|1375> d 1
|1376> 1      1.203000000   -1.816000000 2
|1377> f 1
|1378> 1      1.000000000    0.000000000 2
|1379> end
|1380> Mg>    2.00000000000   -8.44098705582    4.22049352791   -4.26789528527
|1381> NewECP
|1382> N_core 0
|1383> lmax f
|1384> s 1
|1385> 1      1.732000000   14.676000000 2
|1386> p 1
|1387> 1      1.115000000    5.175700000 2
|1388> d 1
|1389> 1      1.203000000   -1.816000000 2
|1390> f 1
|1391> 1      1.000000000    0.000000000 2
|1392> end
|1393> Mg>    2.00000000000   -4.22049352791    8.44098705582   -4.26789528527
|1394> NewECP
|1395> N_core 0
|1396> lmax f
|1397> s 1
|1398> 1      1.732000000   14.676000000 2
|1399> p 1
|1400> 1      1.115000000    5.175700000 2
|1401> d 1
|1402> 1      1.203000000   -1.816000000 2
|1403> f 1
|1404> 1      1.000000000    0.000000000 2
|1405> end
|1406> Mg>    2.00000000000    4.22049352791    8.44098705582   -4.26789528527
|1407> NewECP
|1408> N_core 0
|1409> lmax f
|1410> s 1
|1411> 1      1.732000000   14.676000000 2
|1412> p 1
|1413> 1      1.115000000    5.175700000 2
|1414> d 1
|1415> 1      1.203000000   -1.816000000 2
|1416> f 1
|1417> 1      1.000000000    0.000000000 2
|1418> end
|1419> Mg>    2.00000000000    8.44098705582    4.22049352791   -4.26789528527
|1420> NewECP
|1421> N_core 0
|1422> lmax f
|1423> s 1
|1424> 1      1.732000000   14.676000000 2
|1425> p 1
|1426> 1      1.115000000    5.175700000 2
|1427> d 1
|1428> 1      1.203000000   -1.816000000 2
|1429> f 1
|1430> 1      1.000000000    0.000000000 2
|1431> end
|1432> Mg>    2.00000000000    8.44098705582   -4.22049352791   -4.26789528527
|1433> NewECP
|1434> N_core 0
|1435> lmax f
|1436> s 1
|1437> 1      1.732000000   14.676000000 2
|1438> p 1
|1439> 1      1.115000000    5.175700000 2
|1440> d 1
|1441> 1      1.203000000   -1.816000000 2
|1442> f 1
|1443> 1      1.000000000    0.000000000 2
|1444> end
|1445> Mg>    2.00000000000    4.22049352791   -8.44098705582   -4.26789528527
|1446> NewECP
|1447> N_core 0
|1448> lmax f
|1449> s 1
|1450> 1      1.732000000   14.676000000 2
|1451> p 1
|1452> 1      1.115000000    5.175700000 2
|1453> d 1
|1454> 1      1.203000000   -1.816000000 2
|1455> f 1
|1456> 1      1.000000000    0.000000000 2
|1457> end
|1458> Mg>    2.00000000000   -4.22049352791   -8.44098705582   -4.26789528527
|1459> NewECP
|1460> N_core 0
|1461> lmax f
|1462> s 1
|1463> 1      1.732000000   14.676000000 2
|1464> p 1
|1465> 1      1.115000000    5.175700000 2
|1466> d 1
|1467> 1      1.203000000   -1.816000000 2
|1468> f 1
|1469> 1      1.000000000    0.000000000 2
|1470> end
|1471> Mg>    2.00000000000   -8.44098705582   -4.22049352791   -4.26789528527
|1472> NewECP
|1473> N_core 0
|1474> lmax f
|1475> s 1
|1476> 1      1.732000000   14.676000000 2
|1477> p 1
|1478> 1      1.115000000    5.175700000 2
|1479> d 1
|1480> 1      1.203000000   -1.816000000 2
|1481> f 1
|1482> 1      1.000000000    0.000000000 2
|1483> end
|1484> Mg>    2.00000000000  -10.55242967836    2.11144262254   -0.04367284424
|1485> NewECP
|1486> N_core 0
|1487> lmax f
|1488> s 1
|1489> 1      1.732000000   14.676000000 2
|1490> p 1
|1491> 1      1.115000000    5.175700000 2
|1492> d 1
|1493> 1      1.203000000   -1.816000000 2
|1494> f 1
|1495> 1      1.000000000    0.000000000 2
|1496> end
|1497> Mg>    2.00000000000   -2.11144262254   10.55242967836   -0.04367284424
|1498> NewECP
|1499> N_core 0
|1500> lmax f
|1501> s 1
|1502> 1      1.732000000   14.676000000 2
|1503> p 1
|1504> 1      1.115000000    5.175700000 2
|1505> d 1
|1506> 1      1.203000000   -1.816000000 2
|1507> f 1
|1508> 1      1.000000000    0.000000000 2
|1509> end
|1510> Mg>    2.00000000000    2.11144262254   10.55242967836   -0.04367284424
|1511> NewECP
|1512> N_core 0
|1513> lmax f
|1514> s 1
|1515> 1      1.732000000   14.676000000 2
|1516> p 1
|1517> 1      1.115000000    5.175700000 2
|1518> d 1
|1519> 1      1.203000000   -1.816000000 2
|1520> f 1
|1521> 1      1.000000000    0.000000000 2
|1522> end
|1523> Mg>    2.00000000000   10.55242967836    2.11144262254   -0.04367284424
|1524> NewECP
|1525> N_core 0
|1526> lmax f
|1527> s 1
|1528> 1      1.732000000   14.676000000 2
|1529> p 1
|1530> 1      1.115000000    5.175700000 2
|1531> d 1
|1532> 1      1.203000000   -1.816000000 2
|1533> f 1
|1534> 1      1.000000000    0.000000000 2
|1535> end
|1536> Mg>    2.00000000000   10.55242967836   -2.11144262254   -0.04367284424
|1537> NewECP
|1538> N_core 0
|1539> lmax f
|1540> s 1
|1541> 1      1.732000000   14.676000000 2
|1542> p 1
|1543> 1      1.115000000    5.175700000 2
|1544> d 1
|1545> 1      1.203000000   -1.816000000 2
|1546> f 1
|1547> 1      1.000000000    0.000000000 2
|1548> end
|1549> Mg>    2.00000000000    2.11144262254  -10.55242967836   -0.04367284424
|1550> NewECP
|1551> N_core 0
|1552> lmax f
|1553> s 1
|1554> 1      1.732000000   14.676000000 2
|1555> p 1
|1556> 1      1.115000000    5.175700000 2
|1557> d 1
|1558> 1      1.203000000   -1.816000000 2
|1559> f 1
|1560> 1      1.000000000    0.000000000 2
|1561> end
|1562> Mg>    2.00000000000   -2.11144262254  -10.55242967836   -0.04367284424
|1563> NewECP
|1564> N_core 0
|1565> lmax f
|1566> s 1
|1567> 1      1.732000000   14.676000000 2
|1568> p 1
|1569> 1      1.115000000    5.175700000 2
|1570> d 1
|1571> 1      1.203000000   -1.816000000 2
|1572> f 1
|1573> 1      1.000000000    0.000000000 2
|1574> end
|1575> Mg>    2.00000000000  -10.55242967836   -2.11144262254   -0.04367284424
|1576> NewECP
|1577> N_core 0
|1578> lmax f
|1579> s 1
|1580> 1      1.732000000   14.676000000 2
|1581> p 1
|1582> 1      1.115000000    5.175700000 2
|1583> d 1
|1584> 1      1.203000000   -1.816000000 2
|1585> f 1
|1586> 1      1.000000000    0.000000000 2
|1587> end
|1588> Mg>    2.00000000000  -10.54803992736    0.00000000000   -2.14155206950
|1589> NewECP
|1590> N_core 0
|1591> lmax f
|1592> s 1
|1593> 1      1.732000000   14.676000000 2
|1594> p 1
|1595> 1      1.115000000    5.175700000 2
|1596> d 1
|1597> 1      1.203000000   -1.816000000 2
|1598> f 1
|1599> 1      1.000000000    0.000000000 2
|1600> end
|1601> Mg>    2.00000000000    0.00000000000   10.54803992736   -2.14155206950
|1602> NewECP
|1603> N_core 0
|1604> lmax f
|1605> s 1
|1606> 1      1.732000000   14.676000000 2
|1607> p 1
|1608> 1      1.115000000    5.175700000 2
|1609> d 1
|1610> 1      1.203000000   -1.816000000 2
|1611> f 1
|1612> 1      1.000000000    0.000000000 2
|1613> end
|1614> Mg>    2.00000000000   10.54803992736    0.00000000000   -2.14155206950
|1615> NewECP
|1616> N_core 0
|1617> lmax f
|1618> s 1
|1619> 1      1.732000000   14.676000000 2
|1620> p 1
|1621> 1      1.115000000    5.175700000 2
|1622> d 1
|1623> 1      1.203000000   -1.816000000 2
|1624> f 1
|1625> 1      1.000000000    0.000000000 2
|1626> end
|1627> Mg>    2.00000000000    0.00000000000  -10.54803992736   -2.14155206950
|1628> NewECP
|1629> N_core 0
|1630> lmax f
|1631> s 1
|1632> 1      1.732000000   14.676000000 2
|1633> p 1
|1634> 1      1.115000000    5.175700000 2
|1635> d 1
|1636> 1      1.203000000   -1.816000000 2
|1637> f 1
|1638> 1      1.000000000    0.000000000 2
|1639> end
|1640> Mg>    2.00000000000   -8.44098705582    6.33393418427   -2.14155206950
|1641> NewECP
|1642> N_core 0
|1643> lmax f
|1644> s 1
|1645> 1      1.732000000   14.676000000 2
|1646> p 1
|1647> 1      1.115000000    5.175700000 2
|1648> d 1
|1649> 1      1.203000000   -1.816000000 2
|1650> f 1
|1651> 1      1.000000000    0.000000000 2
|1652> end
|1653> Mg>    2.00000000000   -6.33393418427    8.44098705582   -2.14155206950
|1654> NewECP
|1655> N_core 0
|1656> lmax f
|1657> s 1
|1658> 1      1.732000000   14.676000000 2
|1659> p 1
|1660> 1      1.115000000    5.175700000 2
|1661> d 1
|1662> 1      1.203000000   -1.816000000 2
|1663> f 1
|1664> 1      1.000000000    0.000000000 2
|1665> end
|1666> Mg>    2.00000000000    6.33393418427    8.44098705582   -2.14155206950
|1667> NewECP
|1668> N_core 0
|1669> lmax f
|1670> s 1
|1671> 1      1.732000000   14.676000000 2
|1672> p 1
|1673> 1      1.115000000    5.175700000 2
|1674> d 1
|1675> 1      1.203000000   -1.816000000 2
|1676> f 1
|1677> 1      1.000000000    0.000000000 2
|1678> end
|1679> Mg>    2.00000000000    8.44098705582    6.33393418427   -2.14155206950
|1680> NewECP
|1681> N_core 0
|1682> lmax f
|1683> s 1
|1684> 1      1.732000000   14.676000000 2
|1685> p 1
|1686> 1      1.115000000    5.175700000 2
|1687> d 1
|1688> 1      1.203000000   -1.816000000 2
|1689> f 1
|1690> 1      1.000000000    0.000000000 2
|1691> end
|1692> Mg>    2.00000000000    8.44098705582   -6.33393418427   -2.14155206950
|1693> NewECP
|1694> N_core 0
|1695> lmax f
|1696> s 1
|1697> 1      1.732000000   14.676000000 2
|1698> p 1
|1699> 1      1.115000000    5.175700000 2
|1700> d 1
|1701> 1      1.203000000   -1.816000000 2
|1702> f 1
|1703> 1      1.000000000    0.000000000 2
|1704> end
|1705> Mg>    2.00000000000    6.33393418427   -8.44098705582   -2.14155206950
|1706> NewECP
|1707> N_core 0
|1708> lmax f
|1709> s 1
|1710> 1      1.732000000   14.676000000 2
|1711> p 1
|1712> 1      1.115000000    5.175700000 2
|1713> d 1
|1714> 1      1.203000000   -1.816000000 2
|1715> f 1
|1716> 1      1.000000000    0.000000000 2
|1717> end
|1718> Mg>    2.00000000000   -6.33393418427   -8.44098705582   -2.14155206950
|1719> NewECP
|1720> N_core 0
|1721> lmax f
|1722> s 1
|1723> 1      1.732000000   14.676000000 2
|1724> p 1
|1725> 1      1.115000000    5.175700000 2
|1726> d 1
|1727> 1      1.203000000   -1.816000000 2
|1728> f 1
|1729> 1      1.000000000    0.000000000 2
|1730> end
|1731> Mg>    2.00000000000   -8.44098705582   -6.33393418427   -2.14155206950
|1732> NewECP
|1733> N_core 0
|1734> lmax f
|1735> s 1
|1736> 1      1.732000000   14.676000000 2
|1737> p 1
|1738> 1      1.115000000    5.175700000 2
|1739> d 1
|1740> 1      1.203000000   -1.816000000 2
|1741> f 1
|1742> 1      1.000000000    0.000000000 2
|1743> end
|1744> Mg>    2.00000000000   -8.44098705582    2.11024676395   -6.37814204923
|1745> NewECP
|1746> N_core 0
|1747> lmax f
|1748> s 1
|1749> 1      1.732000000   14.676000000 2
|1750> p 1
|1751> 1      1.115000000    5.175700000 2
|1752> d 1
|1753> 1      1.203000000   -1.816000000 2
|1754> f 1
|1755> 1      1.000000000    0.000000000 2
|1756> end
|1757> Mg>    2.00000000000   -2.11024676395    8.44098705582   -6.37814204923
|1758> NewECP
|1759> N_core 0
|1760> lmax f
|1761> s 1
|1762> 1      1.732000000   14.676000000 2
|1763> p 1
|1764> 1      1.115000000    5.175700000 2
|1765> d 1
|1766> 1      1.203000000   -1.816000000 2
|1767> f 1
|1768> 1      1.000000000    0.000000000 2
|1769> end
|1770> Mg>    2.00000000000    2.11024676395    8.44098705582   -6.37814204923
|1771> NewECP
|1772> N_core 0
|1773> lmax f
|1774> s 1
|1775> 1      1.732000000   14.676000000 2
|1776> p 1
|1777> 1      1.115000000    5.175700000 2
|1778> d 1
|1779> 1      1.203000000   -1.816000000 2
|1780> f 1
|1781> 1      1.000000000    0.000000000 2
|1782> end
|1783> Mg>    2.00000000000    8.44098705582    2.11024676395   -6.37814204923
|1784> NewECP
|1785> N_core 0
|1786> lmax f
|1787> s 1
|1788> 1      1.732000000   14.676000000 2
|1789> p 1
|1790> 1      1.115000000    5.175700000 2
|1791> d 1
|1792> 1      1.203000000   -1.816000000 2
|1793> f 1
|1794> 1      1.000000000    0.000000000 2
|1795> end
|1796> Mg>    2.00000000000    8.44098705582   -2.11024676395   -6.37814204923
|1797> NewECP
|1798> N_core 0
|1799> lmax f
|1800> s 1
|1801> 1      1.732000000   14.676000000 2
|1802> p 1
|1803> 1      1.115000000    5.175700000 2
|1804> d 1
|1805> 1      1.203000000   -1.816000000 2
|1806> f 1
|1807> 1      1.000000000    0.000000000 2
|1808> end
|1809> Mg>    2.00000000000    2.11024676395   -8.44098705582   -6.37814204923
|1810> NewECP
|1811> N_core 0
|1812> lmax f
|1813> s 1
|1814> 1      1.732000000   14.676000000 2
|1815> p 1
|1816> 1      1.115000000    5.175700000 2
|1817> d 1
|1818> 1      1.203000000   -1.816000000 2
|1819> f 1
|1820> 1      1.000000000    0.000000000 2
|1821> end
|1822> Mg>    2.00000000000   -2.11024676395   -8.44098705582   -6.37814204923
|1823> NewECP
|1824> N_core 0
|1825> lmax f
|1826> s 1
|1827> 1      1.732000000   14.676000000 2
|1828> p 1
|1829> 1      1.115000000    5.175700000 2
|1830> d 1
|1831> 1      1.203000000   -1.816000000 2
|1832> f 1
|1833> 1      1.000000000    0.000000000 2
|1834> end
|1835> Mg>    2.00000000000   -8.44098705582   -2.11024676395   -6.37814204923
|1836> NewECP
|1837> N_core 0
|1838> lmax f
|1839> s 1
|1840> 1      1.732000000   14.676000000 2
|1841> p 1
|1842> 1      1.115000000    5.175700000 2
|1843> d 1
|1844> 1      1.203000000   -1.816000000 2
|1845> f 1
|1846> 1      1.000000000    0.000000000 2
|1847> end
|1848> Mg>    2.00000000000  -10.55072118099    4.22049352791   -2.14445912302
|1849> NewECP
|1850> N_core 0
|1851> lmax f
|1852> s 1
|1853> 1      1.732000000   14.676000000 2
|1854> p 1
|1855> 1      1.115000000    5.175700000 2
|1856> d 1
|1857> 1      1.203000000   -1.816000000 2
|1858> f 1
|1859> 1      1.000000000    0.000000000 2
|1860> end
|1861> Mg>    2.00000000000   -4.22049352791   10.55072118099   -2.14445912302
|1862> NewECP
|1863> N_core 0
|1864> lmax f
|1865> s 1
|1866> 1      1.732000000   14.676000000 2
|1867> p 1
|1868> 1      1.115000000    5.175700000 2
|1869> d 1
|1870> 1      1.203000000   -1.816000000 2
|1871> f 1
|1872> 1      1.000000000    0.000000000 2
|1873> end
|1874> Mg>    2.00000000000    4.22049352791   10.55072118099   -2.14445912302
|1875> NewECP
|1876> N_core 0
|1877> lmax f
|1878> s 1
|1879> 1      1.732000000   14.676000000 2
|1880> p 1
|1881> 1      1.115000000    5.175700000 2
|1882> d 1
|1883> 1      1.203000000   -1.816000000 2
|1884> f 1
|1885> 1      1.000000000    0.000000000 2
|1886> end
|1887> Mg>    2.00000000000   10.55072118099    4.22049352791   -2.14445912302
|1888> NewECP
|1889> N_core 0
|1890> lmax f
|1891> s 1
|1892> 1      1.732000000   14.676000000 2
|1893> p 1
|1894> 1      1.115000000    5.175700000 2
|1895> d 1
|1896> 1      1.203000000   -1.816000000 2
|1897> f 1
|1898> 1      1.000000000    0.000000000 2
|1899> end
|1900> Mg>    2.00000000000   10.55072118099   -4.22049352791   -2.14445912302
|1901> NewECP
|1902> N_core 0
|1903> lmax f
|1904> s 1
|1905> 1      1.732000000   14.676000000 2
|1906> p 1
|1907> 1      1.115000000    5.175700000 2
|1908> d 1
|1909> 1      1.203000000   -1.816000000 2
|1910> f 1
|1911> 1      1.000000000    0.000000000 2
|1912> end
|1913> Mg>    2.00000000000    4.22049352791  -10.55072118099   -2.14445912302
|1914> NewECP
|1915> N_core 0
|1916> lmax f
|1917> s 1
|1918> 1      1.732000000   14.676000000 2
|1919> p 1
|1920> 1      1.115000000    5.175700000 2
|1921> d 1
|1922> 1      1.203000000   -1.816000000 2
|1923> f 1
|1924> 1      1.000000000    0.000000000 2
|1925> end
|1926> Mg>    2.00000000000   -4.22049352791  -10.55072118099   -2.14445912302
|1927> NewECP
|1928> N_core 0
|1929> lmax f
|1930> s 1
|1931> 1      1.732000000   14.676000000 2
|1932> p 1
|1933> 1      1.115000000    5.175700000 2
|1934> d 1
|1935> 1      1.203000000   -1.816000000 2
|1936> f 1
|1937> 1      1.000000000    0.000000000 2
|1938> end
|1939> Mg>    2.00000000000  -10.55072118099   -4.22049352791   -2.14445912302
|1940> NewECP
|1941> N_core 0
|1942> lmax f
|1943> s 1
|1944> 1      1.732000000   14.676000000 2
|1945> p 1
|1946> 1      1.115000000    5.175700000 2
|1947> d 1
|1948> 1      1.203000000   -1.816000000 2
|1949> f 1
|1950> 1      1.000000000    0.000000000 2
|1951> end
|1952> Mg>    2.00000000000  -10.55123381977    2.11024676395   -4.26789528527
|1953> NewECP
|1954> N_core 0
|1955> lmax f
|1956> s 1
|1957> 1      1.732000000   14.676000000 2
|1958> p 1
|1959> 1      1.115000000    5.175700000 2
|1960> d 1
|1961> 1      1.203000000   -1.816000000 2
|1962> f 1
|1963> 1      1.000000000    0.000000000 2
|1964> end
|1965> Mg>    2.00000000000   -2.11024676395   10.55123381977   -4.26789528527
|1966> NewECP
|1967> N_core 0
|1968> lmax f
|1969> s 1
|1970> 1      1.732000000   14.676000000 2
|1971> p 1
|1972> 1      1.115000000    5.175700000 2
|1973> d 1
|1974> 1      1.203000000   -1.816000000 2
|1975> f 1
|1976> 1      1.000000000    0.000000000 2
|1977> end
|1978> Mg>    2.00000000000    2.11024676395   10.55123381977   -4.26789528527
|1979> NewECP
|1980> N_core 0
|1981> lmax f
|1982> s 1
|1983> 1      1.732000000   14.676000000 2
|1984> p 1
|1985> 1      1.115000000    5.175700000 2
|1986> d 1
|1987> 1      1.203000000   -1.816000000 2
|1988> f 1
|1989> 1      1.000000000    0.000000000 2
|1990> end
|1991> Mg>    2.00000000000   10.55123381977    2.11024676395   -4.26789528527
|1992> NewECP
|1993> N_core 0
|1994> lmax f
|1995> s 1
|1996> 1      1.732000000   14.676000000 2
|1997> p 1
|1998> 1      1.115000000    5.175700000 2
|1999> d 1
|2000> 1      1.203000000   -1.816000000 2
|2001> f 1
|2002> 1      1.000000000    0.000000000 2
|2003> end
|2004> Mg>    2.00000000000   10.55123381977   -2.11024676395   -4.26789528527
|2005> NewECP
|2006> N_core 0
|2007> lmax f
|2008> s 1
|2009> 1      1.732000000   14.676000000 2
|2010> p 1
|2011> 1      1.115000000    5.175700000 2
|2012> d 1
|2013> 1      1.203000000   -1.816000000 2
|2014> f 1
|2015> 1      1.000000000    0.000000000 2
|2016> end
|2017> Mg>    2.00000000000    2.11024676395  -10.55123381977   -4.26789528527
|2018> NewECP
|2019> N_core 0
|2020> lmax f
|2021> s 1
|2022> 1      1.732000000   14.676000000 2
|2023> p 1
|2024> 1      1.115000000    5.175700000 2
|2025> d 1
|2026> 1      1.203000000   -1.816000000 2
|2027> f 1
|2028> 1      1.000000000    0.000000000 2
|2029> end
|2030> Mg>    2.00000000000   -2.11024676395  -10.55123381977   -4.26789528527
|2031> NewECP
|2032> N_core 0
|2033> lmax f
|2034> s 1
|2035> 1      1.732000000   14.676000000 2
|2036> p 1
|2037> 1      1.115000000    5.175700000 2
|2038> d 1
|2039> 1      1.203000000   -1.816000000 2
|2040> f 1
|2041> 1      1.000000000    0.000000000 2
|2042> end
|2043> Mg>    2.00000000000  -10.55123381977   -2.11024676395   -4.26789528527
|2044> NewECP
|2045> N_core 0
|2046> lmax f
|2047> s 1
|2048> 1      1.732000000   14.676000000 2
|2049> p 1
|2050> 1      1.115000000    5.175700000 2
|2051> d 1
|2052> 1      1.203000000   -1.816000000 2
|2053> f 1
|2054> 1      1.000000000    0.000000000 2
|2055> end
|2056> Mg>    2.00000000000   -8.44098705582    8.44098705582    0.00000000000
|2057> NewECP
|2058> N_core 0
|2059> lmax f
|2060> s 1
|2061> 1      1.732000000   14.676000000 2
|2062> p 1
|2063> 1      1.115000000    5.175700000 2
|2064> d 1
|2065> 1      1.203000000   -1.816000000 2
|2066> f 1
|2067> 1      1.000000000    0.000000000 2
|2068> end
|2069> Mg>    2.00000000000    8.44098705582    8.44098705582    0.00000000000
|2070> NewECP
|2071> N_core 0
|2072> lmax f
|2073> s 1
|2074> 1      1.732000000   14.676000000 2
|2075> p 1
|2076> 1      1.115000000    5.175700000 2
|2077> d 1
|2078> 1      1.203000000   -1.816000000 2
|2079> f 1
|2080> 1      1.000000000    0.000000000 2
|2081> end
|2082> Mg>    2.00000000000    8.44098705582   -8.44098705582    0.00000000000
|2083> NewECP
|2084> N_core 0
|2085> lmax f
|2086> s 1
|2087> 1      1.732000000   14.676000000 2
|2088> p 1
|2089> 1      1.115000000    5.175700000 2
|2090> d 1
|2091> 1      1.203000000   -1.816000000 2
|2092> f 1
|2093> 1      1.000000000    0.000000000 2
|2094> end
|2095> Mg>    2.00000000000   -8.44098705582   -8.44098705582    0.00000000000
|2096> NewECP
|2097> N_core 0
|2098> lmax f
|2099> s 1
|2100> 1      1.732000000   14.676000000 2
|2101> p 1
|2102> 1      1.115000000    5.175700000 2
|2103> d 1
|2104> 1      1.203000000   -1.816000000 2
|2105> f 1
|2106> 1      1.000000000    0.000000000 2
|2107> end
|2108> Mg>    2.00000000000  -10.55242967836    6.32954443328   -0.04367284424
|2109> NewECP
|2110> N_core 0
|2111> lmax f
|2112> s 1
|2113> 1      1.732000000   14.676000000 2
|2114> p 1
|2115> 1      1.115000000    5.175700000 2
|2116> d 1
|2117> 1      1.203000000   -1.816000000 2
|2118> f 1
|2119> 1      1.000000000    0.000000000 2
|2120> end
|2121> Mg>    2.00000000000   -6.32954443328   10.55242967836   -0.04367284424
|2122> NewECP
|2123> N_core 0
|2124> lmax f
|2125> s 1
|2126> 1      1.732000000   14.676000000 2
|2127> p 1
|2128> 1      1.115000000    5.175700000 2
|2129> d 1
|2130> 1      1.203000000   -1.816000000 2
|2131> f 1
|2132> 1      1.000000000    0.000000000 2
|2133> end
|2134> Mg>    2.00000000000    6.32954443328   10.55242967836   -0.04367284424
|2135> NewECP
|2136> N_core 0
|2137> lmax f
|2138> s 1
|2139> 1      1.732000000   14.676000000 2
|2140> p 1
|2141> 1      1.115000000    5.175700000 2
|2142> d 1
|2143> 1      1.203000000   -1.816000000 2
|2144> f 1
|2145> 1      1.000000000    0.000000000 2
|2146> end
|2147> Mg>    2.00000000000   10.55242967836    6.32954443328   -0.04367284424
|2148> NewECP
|2149> N_core 0
|2150> lmax f
|2151> s 1
|2152> 1      1.732000000   14.676000000 2
|2153> p 1
|2154> 1      1.115000000    5.175700000 2
|2155> d 1
|2156> 1      1.203000000   -1.816000000 2
|2157> f 1
|2158> 1      1.000000000    0.000000000 2
|2159> end
|2160> Mg>    2.00000000000   10.55242967836   -6.32954443328   -0.04367284424
|2161> NewECP
|2162> N_core 0
|2163> lmax f
|2164> s 1
|2165> 1      1.732000000   14.676000000 2
|2166> p 1
|2167> 1      1.115000000    5.175700000 2
|2168> d 1
|2169> 1      1.203000000   -1.816000000 2
|2170> f 1
|2171> 1      1.000000000    0.000000000 2
|2172> end
|2173> Mg>    2.00000000000    6.32954443328  -10.55242967836   -0.04367284424
|2174> NewECP
|2175> N_core 0
|2176> lmax f
|2177> s 1
|2178> 1      1.732000000   14.676000000 2
|2179> p 1
|2180> 1      1.115000000    5.175700000 2
|2181> d 1
|2182> 1      1.203000000   -1.816000000 2
|2183> f 1
|2184> 1      1.000000000    0.000000000 2
|2185> end
|2186> Mg>    2.00000000000   -6.32954443328  -10.55242967836   -0.04367284424
|2187> NewECP
|2188> N_core 0
|2189> lmax f
|2190> s 1
|2191> 1      1.732000000   14.676000000 2
|2192> p 1
|2193> 1      1.115000000    5.175700000 2
|2194> d 1
|2195> 1      1.203000000   -1.816000000 2
|2196> f 1
|2197> 1      1.000000000    0.000000000 2
|2198> end
|2199> Mg>    2.00000000000  -10.55242967836   -6.32954443328   -0.04367284424
|2200> NewECP
|2201> N_core 0
|2202> lmax f
|2203> s 1
|2204> 1      1.732000000   14.676000000 2
|2205> p 1
|2206> 1      1.115000000    5.175700000 2
|2207> d 1
|2208> 1      1.203000000   -1.816000000 2
|2209> f 1
|2210> 1      1.000000000    0.000000000 2
|2211> end
|2212> end
|2213> end
[...]
B( 13-Mg, 61-O ) :  -0.6316 B( 13-Mg, 62-O ) :  -0.6336 B( 13-Mg, 63-O ) :  -0.1189 
B( 14-Mg, 15-Mg) :  -0.8126 B( 14-Mg, 17-O ) :  -0.2306 B( 14-Mg, 18-O ) :  -0.2306 
B( 14-Mg, 22-Mg) :   0.1724 B( 14-Mg, 27-O ) :  -0.2247 B( 14-Mg, 28-O ) :  -0.2241 
B( 14-Mg, 33-O ) :   0.1324 B( 14-Mg, 34-O ) :  -1.2540 B( 14-Mg, 35-O ) :   0.1330 
B( 14-Mg, 36-O ) :  -0.2316 B( 14-Mg, 37-O ) :  -0.2507 B( 14-Mg, 38-O ) :  -1.8175 
B( 14-Mg, 39-O ) :  -0.2515 B( 14-Mg, 43-Mg) :  -0.4411 B( 14-Mg, 44-Mg) :  -0.4425 
B( 14-Mg, 62-O ) :  -0.1180 B( 14-Mg, 63-O ) :  -0.6325 B( 14-Mg, 64-O ) :  -0.6333 
B( 14-Mg, 65-O ) :  -0.1173 B( 15-Mg, 18-O ) :  -0.2319 B( 15-Mg, 19-O ) :  -0.2291 
B( 15-Mg, 23-Mg) :   0.1728 B( 15-Mg, 29-O ) :  -0.2240 B( 15-Mg, 30-O ) :  -0.2250 
B( 15-Mg, 32-O ) :   0.1334 B( 15-Mg, 34-O ) :   0.1328 B( 15-Mg, 35-O ) :  -1.2502 
B( 15-Mg, 36-O ) :  -0.2488 B( 15-Mg, 37-O ) :  -0.2297 B( 15-Mg, 38-O ) :  -0.2518 
B( 15-Mg, 39-O ) :  -1.8159 B( 15-Mg, 45-Mg) :  -0.4412 B( 15-Mg, 46-Mg) :  -0.4443 
B( 15-Mg, 64-O ) :  -0.1183 B( 15-Mg, 65-O ) :  -0.6329 B( 15-Mg, 66-O ) :  -0.6316 
B( 15-Mg, 67-O ) :  -0.1181 B( 16-O , 36-O ) :   0.3079 B( 16-O , 37-O ) :   0.3075 
B( 16-O , 40-Mg) :   0.4367 B( 16-O , 41-Mg) :   0.4360 B( 16-O , 56-O ) :  -0.1614 
B( 16-O , 60-O ) :   0.2932 B( 16-O , 61-O ) :   0.2933 B( 17-O , 37-O ) :   0.3074 
B( 17-O , 38-O ) :   0.3078 B( 17-O , 42-Mg) :   0.4362 B( 17-O , 43-Mg) :   0.4376 
B( 17-O , 57-O ) :  -0.1613 B( 17-O , 62-O ) :   0.2942 B( 17-O , 63-O ) :   0.2941 
B( 18-O , 38-O ) :   0.3075 B( 18-O , 39-O ) :   0.3078 B( 18-O , 44-Mg) :   0.4381 
B( 18-O , 45-Mg) :   0.4357 B( 18-O , 58-O ) :  -0.1615 B( 18-O , 64-O ) :   0.2938 
B( 18-O , 65-O ) :   0.2940 B( 19-O , 36-O ) :   0.3077 B( 19-O , 39-O ) :   0.3075 
B( 19-O , 46-Mg) :   0.4377 B( 19-O , 47-Mg) :   0.4365 B( 19-O , 59-O ) :  -0.1613 
B( 19-O , 66-O ) :   0.2945 B( 19-O , 67-O ) :   0.2938 B( 20-Mg, 24-O ) :   0.3198 
B( 20-Mg, 31-O ) :   0.3196 B( 20-Mg, 32-O ) :   0.4598 B( 20-Mg, 52-O ) :   0.1266 
B( 20-Mg, 68-O ) :  -0.1318 B( 20-Mg, 75-O ) :  -0.1315 B( 21-Mg, 25-O ) :   0.3205 
B( 21-Mg, 26-O ) :   0.3208 B( 21-Mg, 33-O ) :   0.4594 B( 21-Mg, 53-O ) :   0.1271 
B( 21-Mg, 69-O ) :  -0.1317 B( 21-Mg, 70-O ) :  -0.1316 B( 22-Mg, 27-O ) :   0.3200 
B( 22-Mg, 28-O ) :   0.3200 B( 22-Mg, 34-O ) :   0.4602 B( 22-Mg, 54-O ) :   0.1269 
B( 22-Mg, 71-O ) :  -0.1317 B( 22-Mg, 72-O ) :  -0.1321 B( 23-Mg, 29-O ) :   0.3195 
B( 23-Mg, 30-O ) :   0.3201 B( 23-Mg, 35-O ) :   0.4602 B( 23-Mg, 55-O ) :   0.1269 
B( 23-Mg, 73-O ) :  -0.1316 B( 23-Mg, 74-O ) :  -0.1317 B( 24-O , 40-Mg) :   0.1112 
B( 24-O , 41-Mg) :  -0.1529 B( 24-O , 48-Mg) :   0.3760 B( 25-O , 40-Mg) :  -0.1528 
B( 25-O , 41-Mg) :   0.1103 B( 25-O , 48-Mg) :   0.3765 B( 26-O , 42-Mg) :   0.1109 
B( 26-O , 43-Mg) :  -0.1529 B( 26-O , 49-Mg) :   0.3757 B( 27-O , 42-Mg) :  -0.1530 
B( 27-O , 43-Mg) :   0.1114 B( 27-O , 49-Mg) :   0.3756 B( 28-O , 44-Mg) :   0.1108 
B( 28-O , 45-Mg) :  -0.1529 B( 28-O , 50-Mg) :   0.3763 B( 29-O , 44-Mg) :  -0.1531 
B( 29-O , 45-Mg) :   0.1117 B( 29-O , 50-Mg) :   0.3761 B( 30-O , 46-Mg) :   0.1095 
B( 30-O , 47-Mg) :  -0.1525 B( 30-O , 51-Mg) :   0.3760 B( 31-O , 46-Mg) :  -0.1524 
B( 31-O , 47-Mg) :   0.1098 B( 31-O , 51-Mg) :   0.3761 B( 32-O , 36-O ) :   0.1548 
B( 32-O , 40-Mg) :   0.5614 B( 32-O , 47-Mg) :   0.5616 B( 32-O , 60-O ) :   0.2191 
B( 32-O , 67-O ) :   0.2193 B( 32-O , 68-O ) :   0.1348 B( 32-O , 75-O ) :   0.1349 
B( 33-O , 37-O ) :   0.1546 B( 33-O , 41-Mg) :   0.5612 B( 33-O , 42-Mg) :   0.5622 
B( 33-O , 61-O ) :   0.2189 B( 33-O , 62-O ) :   0.2193 B( 33-O , 69-O ) :   0.1349 
B( 33-O , 70-O ) :   0.1350 B( 34-O , 38-O ) :   0.1547 B( 34-O , 43-Mg) :   0.5609 
B( 34-O , 44-Mg) :   0.5616 B( 34-O , 63-O ) :   0.2191 B( 34-O , 64-O ) :   0.2192 
B( 34-O , 71-O ) :   0.1344 B( 34-O , 72-O ) :   0.1349 B( 35-O , 39-O ) :   0.1548 
B( 35-O , 45-Mg) :   0.5620 B( 35-O , 46-Mg) :   0.5617 B( 35-O , 65-O ) :   0.2188 
B( 35-O , 66-O ) :   0.2187 B( 35-O , 73-O ) :   0.1347 B( 35-O , 74-O ) :   0.1347 
B( 36-O , 37-O ) :   0.2687 B( 36-O , 39-O ) :   0.2686 B( 36-O , 60-O ) :   0.2540 
B( 36-O , 67-O ) :   0.2543 B( 37-O , 38-O ) :   0.2689 B( 37-O , 61-O ) :   0.2539 
B( 37-O , 62-O ) :   0.2544 B( 38-O , 39-O ) :   0.2690 B( 38-O , 63-O ) :   0.2543 
B( 38-O , 64-O ) :   0.2542 B( 39-O , 65-O ) :   0.2543 B( 39-O , 66-O ) :   0.2539 
B( 40-Mg, 41-Mg) :  -0.2520 B( 40-Mg, 47-Mg) :   0.1181 B( 40-Mg, 52-O ) :  -0.2316 
B( 40-Mg, 56-O ) :   0.3866 B( 40-Mg, 60-O ) :  -0.1527 B( 40-Mg, 61-O ) :  -0.1119 
B( 40-Mg, 75-O ) :   0.1178 B( 40-Mg, 76-O ) :  -0.1504 B( 41-Mg, 42-Mg) :   0.1172 
B( 41-Mg, 53-O ) :  -0.2320 B( 41-Mg, 56-O ) :   0.3860 B( 41-Mg, 60-O ) :  -0.1110 
B( 41-Mg, 61-O ) :  -0.1543 B( 41-Mg, 70-O ) :   0.1174 B( 41-Mg, 77-O ) :  -0.1500 
B( 42-Mg, 43-Mg) :  -0.2513 B( 42-Mg, 53-O ) :  -0.2314 B( 42-Mg, 57-O ) :   0.3868 
B( 42-Mg, 62-O ) :  -0.1530 B( 42-Mg, 63-O ) :  -0.1113 B( 42-Mg, 69-O ) :   0.1171 
B( 42-Mg, 78-O ) :  -0.1506 B( 43-Mg, 44-Mg) :   0.1186 B( 43-Mg, 54-O ) :  -0.2316 
B( 43-Mg, 57-O ) :   0.3873 B( 43-Mg, 62-O ) :  -0.1120 B( 43-Mg, 63-O ) :  -0.1535 
B( 43-Mg, 72-O ) :   0.1172 B( 43-Mg, 79-O ) :  -0.1504 B( 44-Mg, 45-Mg) :  -0.2520 
B( 44-Mg, 54-O ) :  -0.2317 B( 44-Mg, 58-O ) :   0.3874 B( 44-Mg, 64-O ) :  -0.1525 
B( 44-Mg, 65-O ) :  -0.1112 B( 44-Mg, 71-O ) :   0.1172 B( 44-Mg, 80-O ) :  -0.1500 
B( 45-Mg, 46-Mg) :   0.1180 B( 45-Mg, 55-O ) :  -0.2314 B( 45-Mg, 58-O ) :   0.3878 
B( 45-Mg, 64-O ) :  -0.1115 B( 45-Mg, 65-O ) :  -0.1544 B( 45-Mg, 74-O ) :   0.1177 
B( 45-Mg, 81-O ) :  -0.1496 B( 46-Mg, 47-Mg) :  -0.2520 B( 46-Mg, 55-O ) :  -0.2315 
B( 46-Mg, 59-O ) :   0.3866 B( 46-Mg, 66-O ) :  -0.1523 B( 46-Mg, 67-O ) :  -0.1113 
B( 46-Mg, 73-O ) :   0.1175 B( 46-Mg, 82-O ) :  -0.1508 B( 47-Mg, 52-O ) :  -0.2311 
B( 47-Mg, 59-O ) :   0.3858 B( 47-Mg, 66-O ) :  -0.1109 B( 47-Mg, 67-O ) :  -0.1530 
B( 47-Mg, 68-O ) :   0.1171 B( 47-Mg, 83-O ) :  -0.1504 B( 48-Mg, 56-O ) :   0.4270 
B( 48-Mg, 76-O ) :   0.2451 B( 48-Mg, 77-O ) :   0.2456 B( 49-Mg, 57-O ) :   0.4275 
B( 49-Mg, 78-O ) :   0.2461 B( 49-Mg, 79-O ) :   0.2453 B( 50-Mg, 58-O ) :   0.4271 
B( 50-Mg, 80-O ) :   0.2455 B( 50-Mg, 81-O ) :   0.2453 B( 51-Mg, 59-O ) :   0.4270 
B( 51-Mg, 82-O ) :   0.2458 B( 51-Mg, 83-O ) :   0.2456 B( 60-O , 61-O ) :   0.1229 
B( 62-O , 63-O ) :   0.1231 B( 64-O , 65-O ) :   0.1231 B( 66-O , 67-O ) :   0.1228 


-------
TIMINGS
-------

Total SCF time: 0 days 0 hours 33 min 30 sec 

Total time                  ....    2010.715 sec
Sum of individual times     ....    2012.549 sec  (100.1%)

SCF preparation             ....       3.226 sec  (  0.2%)
Fock matrix formation       ....    1977.859 sec  ( 98.4%)
  Startup                   ....       0.460 sec  (  0.0% of F)
  Split-RI-J                ....     201.026 sec  ( 10.2% of F)
  Chain of spheres X        ....    1775.441 sec  ( 89.8% of F)
Diagonalization             ....       0.000 sec  (  0.0%)
Density matrix formation    ....       2.902 sec  (  0.1%)
Total Energy calculation    ....       1.040 sec  (  0.1%)
Population analysis         ....       1.007 sec  (  0.1%)
Orbital Transformation      ....       2.557 sec  (  0.1%)
Orbital Orthonormalization  ....       0.000 sec  (  0.0%)
DIIS solution               ....      16.372 sec  (  0.8%)
SOSCF solution              ....       5.707 sec  (  0.3%)
Finished LeanSCF after 2013.0 sec

Maximum memory used throughout the entire LEANSCF-calculation: 923.7 MB


           ************************************************************
           *        Program running with 8 parallel MPI-processes     *
           *              working on a common directory               *
           ************************************************************

------------------------------------------------------------------------------
                                ORCA  MP2 
------------------------------------------------------------------------------

NOTE: Switching SHARK to Segmented Contraction for MP2
      If that is not desired please turn off the PGCFlag in the input (%shark PGCFlag 0 end)
      Number of basis functions in BAS before restore: 2736
      Number of basis functions in BAS after restore : 1807
Freezing NCore=364 chemical core electrons

-------------
RI-MP2 ENERGY
-------------
Dimension of the orbital basis            ... 1807
Dimension of the AuxC basis               ... 6148
Memory devoted to MP2                     ... 25000 MB   
Data format for matrix containers         ... DOUBLE
Compression type for matrix containers    ... UNCOMPRESSED

-----------------------
SHARK RI TRANSFORMATION
-----------------------

Number of basis functions                ...   1807
Number of aux functions                  ...   6148
Number of operators                      ...      1
Generation of IJK                        ... NO
Generation of IAK                        ... YES
Generation of ABK                        ... NO
Orbital Range Operator  0:  182- 409 to  410-1806

Aux basis identifier                     ...   AUXC
Contraction scheme used                  ... SEGMENTED
Do orthogonalization                     ... YES
All operator combinations                ... NO
Transpose (ia|K)                         ... NO
Integral generator used                  ... LIBINT
Starting integral generation + trafo... 
Half trafo (segmented) done. Total time =145.5 sec. integrals= 48.0 sec trafo= 88.6 sec
Integral generation and half transformation done (145.5 sec)

Reading or making V^(-1/2)          ... done (  1.0 sec)
Sorting IAK integrals               ... done ( 98.9 sec)

SHARK RI integral transformation done. Total time =245.5 sec.

Opening buffers                              ... done

Starting loop over batches of integrals:

Operator 0  - window                       ... (182-409)x(410-1806)
Operator 0  - Memory available             ... 25000 MB
Operator 0  - Memory needed per MO         ...  65.5 MB
Operator 0  - Number of orbitals per batch ... 29
Operator 0  - Number of batches            ... 1

OPERATOR  0   PASS   0:  MOs   182 ...  210 +  211 ...  239 +  240 ...  268 +  269 ...  297
                            +  298 ...  326 +  327 ...  355 +  356 ...  384 +  385 ...  409
  Reading integrals       ... ok
  Internal MO 184
  Internal MO 187
  Internal MO 190
  Internal MO 193
  Internal MO 196
  Internal MO 199
  Internal MO 202
  Internal MO 205
  Internal MO 208
Time spent in pair loops =  3990.553 sec
Deleting buffers (Ka|jb) ...done

-----------------------------------------------
 RI-MP2 CORRELATION ENERGY:    -13.235488854 Eh
-----------------------------------------------


-------
TIMINGS
-------

Total time                : 4256.859 sec
Integral trafo            :  245.597 sec (  5.8%)
I/O of integrals          :    1.171 sec (  0.0%)
K(i,j) operators          :  291.511 sec (  6.8%)
T(i,j) pair energies      :    8.363 sec (  0.2%)
V**(-1/2)                 :   20.608 sec (  0.5%)


---------------------------------------
MP2 TOTAL ENERGY:   -11349.494674146 Eh
---------------------------------------

Maximum memory used throughout the entire MP2-calculation: 2465.8 MB

-------------------------   --------------------
FINAL SINGLE POINT ENERGY    -11349.494674145932
-------------------------   --------------------



           ************************************************************
           *        Program running with 8 parallel MPI-processes     *
           *              working on a common directory               *
           ************************************************************

------------------------------------------------------------------------------
                              ORCA PROPERTY CALCULATIONS
------------------------------------------------------------------------------

GBWName                                 ... orca.gbw
Number of atoms                         ...    245
Number of basis functions               ...   2736
Max core memory                         ...  25000 MB

Electric properties:
Dipole moment                           ... YES
Quadrupole moment                       ...  NO
Static polarizability (Dipole/Dipole)   ...  NO
Static polarizability (Dipole/Quad.)    ...  NO
Static polarizability (Quad./Quad.)     ...  NO
Static polarizability (Velocity)        ...  NO

Atomic electric properties:
Dipole moment                           ...  NO
Quadrupole moment                       ...  NO
Static polarizability                   ...  NO

Choice of electric origin               ... Center of mass
Position of electric origin             ...     0.000000     0.000000    -2.706435

General magnetic properties:
Magnetizability                         ...  NO

EPR properties:
g-Tensor (aka g-matrix)                 ...  NO
Zero-Field splitting spin-orbit         ...  NO
Zero-field splitting spin-spin          ...  NO
Hyperfine couplings                     ...  NO (   0 nuclei)
Quadrupole couplings                    ...  NO (   0 nuclei)
Contact density                         ...  NO (   0 nuclei)

NMR properties:
Chemical shifts                         ...  NO (   0 nuclei)
Spin-rotation constants                 ...  NO (   0 nuclei)
Spin-spin couplings                     ...  NO (   0 nuclei,    0 pairs)

Choice of magnetic origin               ... GIAO
Position of magnetic origin             ...     0.000000     0.000000     0.000000

Properties with geometric perturbations:
SCF Hessian                             ...  NO
IR spectrum                             ...  NO
VCD spectrum                            ...  NO
X-ray spectroscopy properties:
SCF XES/XAS/RIXS spectra                ...  NO


-------------
DIPOLE MOMENT
-------------

Method             : SCF
Type of density    : Electron Density
Multiplicity       :   1
Irrep              :   0
Energy             : -11336.2591852920922975 Eh
Relativity type    : 
Basis              : AO
                                X                 Y                 Z
Electronic contribution:      0.000041850      -0.000044142      94.507925764
Nuclear contribution   :     -0.000000000       0.000000000    -958.398094451
                        -----------------------------------------
Total Dipole Moment    :      0.000041850      -0.000044142    -863.890168686
                        -----------------------------------------
Magnitude (a.u.)       :    863.890168686
Magnitude (Debye)      :   2195.834302987



--------------------
Rotational spectrum 
--------------------
 
Rotational constants in cm-1:             0.000779             0.000779             0.000459 
Rotational constants in MHz :            23.346084            23.346084            13.752387 

Dipole components along the rotational axes: 
x,y,z [a.u.] :     0.000022     0.000057  -863.890169 
x,y,z [Debye]:     0.000057     0.000144 -2195.834303 

 

Dipole moment calculation done in   0.2 sec 

Maximum memory used throughout the entire PROP-calculation: 435.5 MB

--------------------------------
SUGGESTED CITATIONS FOR THIS RUN
--------------------------------

Below you find a list of papers that are relevant to this ORCA run
We neither can nor want to force you to cite these papers, but we appreciate if you do
You receive ORCA, which is the product of decades of hard work by many enthusiastic individuals, for free
The only thing we kindly ask in return is that you cite our papers,
We deeply appreciate it, if you show your appreciation for ORCA by not just citing the generic ORCA reference.

Please note that relegating all ORCA citations to the supporting information does *not* help us.
SI sections are not indexed - citations you put there will not count into any citation statistics
But we need these citations in order to attract the funding resources that allow us to do what we are doing

Therefore, if you are a happy ORCA user, please consider citing a few of the papers listed below in the main body of your paper

In addition to the list printed below, the program has created the file orca.bibtex that contains the list in bibtex format
You can import this file easily into all common literature databanks and citation aid programs


List of essential papers. We consider these as the minimum necessary citations

  1. Neese,F.
     Software update: the ORCA program system, version 5.0
     WIRES Comput. Molec. Sci., 2022 12(1)e1606
     doi.org/10.1002/wcms.1606

List of papers to cite with high priority. The work reported in these papers was absolutely
necessary for this run to complete.
Our perspective: the developers of density functionals and basis sets usually get cited in chemistry papers
Good! But without the algorithms to do something with them, the functionals or basis sets would not do anything.
Hence, in our opinion, the algorithm design and method developments papers are equally worthy of getting cited

  1. Neese,F.
     An improvement of the resolution of the identity approximation for the formation of the Coulomb matrix
     J. Comp. Chem., 2003 24(14)1740-1747
     doi.org/10.1002/jcc.10318
  2. Neese,F.; Wennmohs,F.; Hansen,A.; Becker,U.
     Efficient, approximate and parallel Hartree-Fock and hybrid DFT calculations. A 'chain-of-spheres' algorithm for the Hartree-Fock exchange
     Chem. Phys., 2009 356(1-3)98-109
     doi.org/10.1016/j.chemphys.2008.10.036
  3. Kossmann,S.; Neese,F.
     Efficient Structure Optimization with Second-Order Many-Body Perturbation Theory: The RIJCOSX-MP2 Method
     J. Theo. Comp. Chem., 2010 6 2325-2338
     doi.org/10.1021/ct100199k
  4. Helmich-Paris,B.; de Souza,B.; Neese,F.; Izsák,R.
     An improved chain of spheres for exchange algorithm
     J. Chem. Phys., 2021 155 104109
     doi.org/doi: 10.1063/5.0058766.
  5. Neese,F.
     The SHARK Integral Generation and Digestion System
     J. Comp. Chem., 2022  1-16
     doi.org/10.1002/jcc.26942

List of suggested additional citations. These are papers that are important in the 'surrounding' of 
of this run, or papers that preceded the highly important papers. If you like your results we are grateful for a citation.

  1. Izsak,R.; Neese,F.
     An overlap fitted chain of spheres exchange method
     J. Chem. Phys., 2011 135 144105
     doi.org/10.1063/1.3646921
  2. Izsak,R.; Hansen,A.; Neese,F.
     The resolution of identity and chain of spheres approximations for the LPNO-CCSD singles Fock term
     Molec. Phys., 2012 110 2413-2417
     doi.org/10.1080/00268976.2012.687466
  3. Neese,F.
     The ORCA program system
     WIRES Comput. Molec. Sci., 2012 2(1)73-78
     doi.org/10.1002/wcms.81
  4. Izsak,R.; Neese,F.; Klopper,W.
     Robust fitting techniques in the chain of spheres approximation to the Fock exchange: The role of the complementary space
     J. Chem. Phys., 2013 139 
     doi.org/10.1063/1.4819264
  5. Neese,F.
     Software update: the ORCA program system, version 4.0
     WIRES Comput. Molec. Sci., 2018 8(1)1-6
     doi.org/10.1002/wcms.1327
  6. Neese,F.; Wennmohs,F.; Becker,U.; Riplinger,C.
     The ORCA quantum chemistry program package
     J. Chem. Phys., 2020 152 Art. No. L224108
     doi.org/10.1063/5.0004608

List of optional additional citations

  1. Neese,F.
     Approximate second-order SCF convergence for spin unrestricted wavefunctions
     Chem. Phys. Lett., 2000 325(1-3)93-98
     doi.org/10.1016/s0009-2614(00)00662-x

Timings for individual modules:

Sum of individual times          ...     6403.276 sec (= 106.721 min)
Startup calculation              ...      105.216 sec (=   1.754 min)   1.6 %
SCF iterations                   ...     2021.904 sec (=  33.698 min)  31.6 %
Property calculations            ...        6.433 sec (=   0.107 min)   0.1 %
MP2 module                       ...     4269.723 sec (=  71.162 min)  66.7 %
                             ****ORCA TERMINATED NORMALLY****
TOTAL RUN TIME: 0 days 1 hours 46 minutes 46 seconds 999 msec
