 vasp.6.3.0 20Jan22 (build Apr  1 2022 16:44:48) complex
 executed on        HPECrayEX_GCC date 2022.09.24  12:31:25
 running  768 mpi-ranks, with    1 threads/rank
 distrk:  each k-point on  384 cores,    2 groups
 distr:  one band on NCORE=   4 cores,   96 groups


--------------------------------------------------------------------------------------------------------


 INCAR:
   SYSTEM = MgO-rocksalt
   ISMEAR = 0
   SIGMA = 0.05
   EDIFF = 1E-7
   ALGO = ALL
   ISTART = 0
   IBRION = 2
   NSW = 1000
   ISYM = 2
   ISIF = 3
   EDIFFG = -0.005
   GGA = PE
   IVDW = 1
   VDW_C6 = 0.63 0.70
   VDW_R0 = 1.243 1.342
   ENCUT = 600
   PREC = Normal
   LASPH = .TRUE.
   LREAL = .FALSE.
   ISPIN = 1
   NELM = 200
   NELMIN = 8
   NCORE = 4
   KPAR = 2
   LWAVE = .FALSE.
   LCHARG = .FALSE.

 POTCAR:    PAW_PBE Mg_pv 13Apr2007
 POTCAR:    PAW_PBE O 08Apr2002
 POTCAR:    PAW_PBE Mg_pv 13Apr2007
   SHA256 =  f474ac0dd33840b9ae76c01d57fea79fdf77cdfbb07d5ade72c65f83c709b62b Mg_pv/POTCAR
   COPYR  = (c) Copyright 13Apr2007 Georg Kresse
   COPYR  = This file is part of the software VASP. Any use, copying, and all other rights are regul
   COPYR  = If you do not have a valid VASP license, you may not use, copy or distribute this file.
   VRHFIN =Mg: p6s2
   LEXCH  = PE
   EATOM  =  1056.7344 eV,   77.6678 Ry

   TITEL  = PAW_PBE Mg_pv 13Apr2007
   LULTRA =        F    use ultrasoft PP ?
   IUNSCR =        1    unscreen: 0-lin 1-nonlin 2-no
   RPACOR =    1.500    partial core radius
   POMASS =   24.305; ZVAL   =    8.000    mass and valenz
   RCORE  =    2.000    outmost cutoff radius
   RWIGS  =    2.000; RWIGS  =    1.058    wigner-seitz radius (au A)
   ENMAX  =  403.929; ENMIN  =  302.947 eV
   RCLOC  =    1.506    cutoff for local pot
   LCOR   =        T    correct aug charges
   LPAW   =        T    paw PP
   EAUG   =  758.780
   DEXC   =    0.000
   RMAX   =    2.045    core radius for proj-oper
   RAUG   =    1.300    factor for augmentation sphere
   RDEP   =    2.025    radius for radial grids
   RDEPT  =    1.557    core radius for aug-charge

   Atomic configuration
    5 entries
     n  l   j            E        occ.
     1  0  0.50     -1259.6230   2.0000
     2  0  0.50       -79.8442   2.0000
     2  1  1.50       -46.6121   6.0000
     3  0  0.50        -4.7055   2.0000
     3  2  1.50        -1.3606   0.0000
   Description
     l       E           TYP  RCUT    TYP  RCUT
     1    -46.6121073     23  1.600
     1      2.7211652     23  1.600
     0     -4.7054661     23  2.000
     0     61.2262170     23  2.000
     2     -1.3605826     23  2.000
  local pseudopotential read in
  partial core-charges read in
  partial kinetic energy density read in
  atomic valenz-charges read in
  non local Contribution for L=           1  read in
    real space projection operators read in
  non local Contribution for L=           1  read in
    real space projection operators read in
  non local Contribution for L=           0  read in
    real space projection operators read in
  non local Contribution for L=           0  read in
    real space projection operators read in
  non local Contribution for L=           2  read in
    real space projection operators read in
    PAW grid and wavefunctions read in

   number of l-projection  operators is LMAX  =           5
   number of lm-projection operators is LMMAX =          13

 POTCAR:    PAW_PBE O 08Apr2002
   SHA256 =  818f92134a0a090dccd8ba1447fa70422a3b330e708bb4f08108d8ae51209ddf O/POTCAR
   COPYR  = (c) Copyright 08Apr2002 Georg Kresse
   COPYR  = This file is part of the software VASP. Any use, copying, and all other rights are regul
   COPYR  = If you do not have a valid VASP license, you may not use, copy or distribute this file.
   VRHFIN =O: s2p4
   LEXCH  = PE
   EATOM  =   432.3788 eV,   31.7789 Ry

   TITEL  = PAW_PBE O 08Apr2002
   LULTRA =        F    use ultrasoft PP ?
   IUNSCR =        1    unscreen: 0-lin 1-nonlin 2-no
   RPACOR =    1.200    partial core radius
   POMASS =   16.000; ZVAL   =    6.000    mass and valenz
   RCORE  =    1.520    outmost cutoff radius
   RWIGS  =    1.550; RWIGS  =    0.820    wigner-seitz radius (au A)
   ENMAX  =  400.000; ENMIN  =  300.000 eV
   ICORE  =        2    local potential
   LCOR   =        T    correct aug charges
   LPAW   =        T    paw PP
   EAUG   =  605.392
   DEXC   =    0.000
   RMAX   =    1.553    core radius for proj-oper
   RAUG   =    1.300    factor for augmentation sphere
   RDEP   =    1.550    radius for radial grids
   RDEPT  =    1.329    core radius for aug-charge

   Atomic configuration
    4 entries
     n  l   j            E        occ.
     1  0  0.50      -514.6923   2.0000
     2  0  0.50       -23.9615   2.0000
     2  1  0.50        -9.0305   4.0000
     3  2  1.50        -9.5241   0.0000
   Description
     l       E           TYP  RCUT    TYP  RCUT
     0    -23.9615318     23  1.200
     0     -9.5240782     23  1.200
     1     -9.0304911     23  1.520
     1      8.1634956     23  1.520
     2     -9.5240782      7  1.500
  local pseudopotential read in
  partial core-charges read in
  partial kinetic energy density read in
  kinetic energy density of atom read in
  atomic valenz-charges read in
  non local Contribution for L=           0  read in
    real space projection operators read in
  non local Contribution for L=           0  read in
    real space projection operators read in
  non local Contribution for L=           1  read in
    real space projection operators read in
  non local Contribution for L=           1  read in
    real space projection operators read in
    PAW grid and wavefunctions read in

   number of l-projection  operators is LMAX  =           4
   number of lm-projection operators is LMMAX =           8

  PAW_PBE Mg_pv 13Apr2007               :
 energy of atom  1       EATOM=-1056.7344
 kinetic energy error for atom=    0.0221 (will be added to EATOM!!)
  PAW_PBE O 08Apr2002                   :
 energy of atom  2       EATOM= -432.3788
 kinetic energy error for atom=    0.0168 (will be added to EATOM!!)


 POSCAR: Mg4 O4
  positions in direct lattice
  velocities in cartesian coordinates
 exchange correlation table for  LEXCH =        8
   RHO(1)=    0.500       N(1)  =     2000
   RHO(2)=  100.500       N(2)  =     4000



--------------------------------------------------------------------------------------------------------


 ion  position               nearest neighbor table
   1  0.000  0.000  0.000-   5 2.12   7 2.12   8 2.12   7 2.12   8 2.12   5 2.12
   2  0.000  0.500  0.500-   6 2.12   7 2.12   8 2.12   8 2.12   7 2.12   6 2.12
   3  0.500  0.000  0.500-   5 2.12   6 2.12   7 2.12   5 2.12   6 2.12   7 2.12
   4  0.500  0.500  0.000-   5 2.12   6 2.12   8 2.12   6 2.12   5 2.12   8 2.12
   5  0.500  0.000  0.000-   1 2.12   3 2.12   4 2.12   3 2.12   4 2.12   1 2.12
   6  0.500  0.500  0.500-   2 2.12   3 2.12   4 2.12   4 2.12   3 2.12   2 2.12
   7  0.000  0.000  0.500-   1 2.12   2 2.12   3 2.12   1 2.12   2 2.12   3 2.12
   8  0.000  0.500  0.000-   1 2.12   2 2.12   4 2.12   2 2.12   1 2.12   4 2.12

  LATTYP: Found a simple cubic cell.
 ALAT       =     4.2335713153

  Lattice vectors:

 A1 = (   4.2335713153,   0.0000000000,   0.0000000000)
 A2 = (  -0.0000000000,   4.2335713153,   0.0000000000)
 A3 = (  -0.0000000000,  -0.0000000000,   4.2335713153)


Analysis of symmetry for initial positions (statically):
=====================================================================
 Subroutine PRICEL returns following result:

  LATTYP: Found a face centered cubic cell.
 ALAT       =     4.2335713153

  Lattice vectors:

 A1 = (   2.1167856577,  -2.1167856577,   0.0000000000)
 A2 = (   2.1167856577,   0.0000000000,   2.1167856577)
 A3 = (   0.0000000000,  -2.1167856577,   2.1167856577)

   4 primitive cells build up your supercell.


 Routine SETGRP: Setting up the symmetry group for a
 simple cubic supercell.


 Subroutine GETGRP returns: Found 48 space group operations
 (whereof 48 operations were pure point group operations)
 out of a pool of 48 trial point group operations.


The static configuration has the point symmetry O_h .


Analysis of symmetry for dynamics (positions and initial velocities):
=====================================================================
 Subroutine PRICEL returns following result:

  LATTYP: Found a face centered cubic cell.
 ALAT       =     4.2335713153

  Lattice vectors:

 A1 = (   2.1167856577,  -2.1167856577,   0.0000000000)
 A2 = (   2.1167856577,   0.0000000000,   2.1167856577)
 A3 = (   0.0000000000,  -2.1167856577,   2.1167856577)

   4 primitive cells build up your supercell.


 Routine SETGRP: Setting up the symmetry group for a
 simple cubic supercell.


 Subroutine GETGRP returns: Found 48 space group operations
 (whereof 48 operations were pure point group operations)
 out of a pool of 48 trial point group operations.


The dynamic configuration has the point symmetry O_h .


 Subroutine INISYM returns: Found 48 space group operations
 (whereof 48 operations are pure point group operations),
 and found     4 'primitive' translations


----------------------------------------------------------------------------------------

                                     Primitive cell

  volume of cell :      18.9697

  direct lattice vectors                    reciprocal lattice vectors
     2.116785658 -2.116785658  0.000000000     0.236207194 -0.236207194 -0.236207194
     2.116785658  0.000000000  2.116785658     0.236207194  0.236207194  0.236207194
     0.000000000 -2.116785658  2.116785658    -0.236207194 -0.236207194  0.236207194

  length of vectors
     2.993586986  2.993586986  2.993586986     0.409122861  0.409122861  0.409122861

  position of ions in fractional coordinates (direct lattice)
     0.000000000  0.000000000  0.000000000
     0.500000000  0.500000000  0.500000000

  ion indices of the primitive-cell ions
   primitive index   ion index
                 1           1
                 2           5

----------------------------------------------------------------------------------------



 KPOINTS: pymatgen v2020.8.13 with grid density =

Automatic generation of k-mesh.
 Grid dimensions read from file:
 generate k-points for:    8    8    8

 Generating k-lattice:

  Cartesian coordinates                     Fractional coordinates (reciprocal lattice)
     0.029525899  0.000000000  0.000000000     0.125000000  0.000000000  0.000000000
    -0.000000000  0.029525899  0.000000000     0.000000000  0.125000000  0.000000000
     0.000000000 -0.000000000  0.029525899     0.000000000  0.000000000  0.125000000

  Length of vectors
     0.029525899  0.029525899  0.029525899

  Shift w.r.t. Gamma in fractional coordinates (k-lattice)
     0.000000000  0.000000000  0.000000000


 Subroutine IBZKPT returns following result:
 ===========================================

 Found     35 irreducible k-points:

 Following reciprocal coordinates:
            Coordinates               Weight
  0.000000  0.000000  0.000000      1.000000
  0.125000  0.000000  0.000000      6.000000
  0.250000  0.000000  0.000000      6.000000
  0.375000  0.000000  0.000000      6.000000
  0.500000  0.000000  0.000000      3.000000
  0.125000  0.125000  0.000000     12.000000
  0.250000  0.125000  0.000000     24.000000
  0.375000  0.125000  0.000000     24.000000
  0.500000  0.125000  0.000000     12.000000
  0.250000  0.250000  0.000000     12.000000
  0.375000  0.250000  0.000000     24.000000
  0.500000  0.250000  0.000000     12.000000
  0.375000  0.375000  0.000000     12.000000
  0.500000  0.375000  0.000000     12.000000
  0.500000  0.500000  0.000000      3.000000
  0.125000  0.125000  0.125000      8.000000
  0.250000  0.125000  0.125000     24.000000
  0.375000  0.125000  0.125000     24.000000
  0.500000  0.125000  0.125000     12.000000
  0.250000  0.250000  0.125000     24.000000
  0.375000  0.250000  0.125000     48.000000
  0.500000  0.250000  0.125000     24.000000
  0.375000  0.375000  0.125000     24.000000
  0.500000  0.375000  0.125000     24.000000
  0.500000  0.500000  0.125000      6.000000
  0.250000  0.250000  0.250000      8.000000
  0.375000  0.250000  0.250000     24.000000
  0.500000  0.250000  0.250000     12.000000
  0.375000  0.375000  0.250000     24.000000
  0.500000  0.375000  0.250000     24.000000
  0.500000  0.500000  0.250000      6.000000
  0.375000  0.375000  0.375000      8.000000
  0.500000  0.375000  0.375000     12.000000
  0.500000  0.500000  0.375000      6.000000
  0.500000  0.500000  0.500000      1.000000

 Following cartesian coordinates:
            Coordinates               Weight
  0.000000  0.000000  0.000000      1.000000
  0.029526  0.000000  0.000000      6.000000
  0.059052  0.000000  0.000000      6.000000
  0.088578  0.000000  0.000000      6.000000
  0.118104  0.000000  0.000000      3.000000
  0.029526  0.029526  0.000000     12.000000
  0.059052  0.029526  0.000000     24.000000
  0.088578  0.029526  0.000000     24.000000
  0.118104  0.029526  0.000000     12.000000
  0.059052  0.059052  0.000000     12.000000
  0.088578  0.059052  0.000000     24.000000
  0.118104  0.059052  0.000000     12.000000
  0.088578  0.088578  0.000000     12.000000
  0.118104  0.088578  0.000000     12.000000
  0.118104  0.118104  0.000000      3.000000
  0.029526  0.029526  0.029526      8.000000
  0.059052  0.029526  0.029526     24.000000
  0.088578  0.029526  0.029526     24.000000
  0.118104  0.029526  0.029526     12.000000
  0.059052  0.059052  0.029526     24.000000
  0.088578  0.059052  0.029526     48.000000
  0.118104  0.059052  0.029526     24.000000
  0.088578  0.088578  0.029526     24.000000
  0.118104  0.088578  0.029526     24.000000
  0.118104  0.118104  0.029526      6.000000
  0.059052  0.059052  0.059052      8.000000
  0.088578  0.059052  0.059052     24.000000
  0.118104  0.059052  0.059052     12.000000
  0.088578  0.088578  0.059052     24.000000
  0.118104  0.088578  0.059052     24.000000
  0.118104  0.118104  0.059052      6.000000
  0.088578  0.088578  0.088578      8.000000
  0.118104  0.088578  0.088578     12.000000
  0.118104  0.118104  0.088578      6.000000
  0.118104  0.118104  0.118104      1.000000



--------------------------------------------------------------------------------------------------------




 Dimension of arrays:
   k-points           NKPTS =     35   k-points in BZ     NKDIM =     35   number of bands    NBANDS=     96
   number of dos      NEDOS =    301   number of ions     NIONS =      8
   non local maximal  LDIM  =      5   non local SUM 2l+1 LMDIM =     13
   total plane-waves  NPLWV =  21952
   max r-space proj   IRMAX =      1   max aug-charges    IRDMAX=   5900
   dimension x,y,z NGX =    28 NGY =   28 NGZ =   28
   dimension x,y,z NGXF=    56 NGYF=   56 NGZF=   56
   support grid    NGXF=    56 NGYF=   56 NGZF=   56
   ions per type =               4   4
   NGX,Y,Z   is equivalent  to a cutoff of  11.00, 11.00, 11.00 a.u.
   NGXF,Y,Z  is equivalent  to a cutoff of  21.99, 21.99, 21.99 a.u.

 SYSTEM =  MgO-rocksalt
 POSCAR =  Mg4 O4

 Startparameter for this run:
   NWRITE =      2    write-flag & timer
   PREC   = normal    normal or accurate (medium, high low for compatibility)
   ISTART =      0    job   : 0-new  1-cont  2-samecut
   ICHARG =      2    charge: 1-file 2-atom 10-const
   ISPIN  =      1    spin polarized calculation?
   LNONCOLLINEAR =      F non collinear calculations
   LSORBIT =      F    spin-orbit coupling
   INIWAV =      1    electr: 0-lowe 1-rand  2-diag
   LASPH  =      T    aspherical Exc in radial PAW
 Electronic Relaxation 1
   ENCUT  =  600.0 eV  44.10 Ry    6.64 a.u.   8.46  8.46  8.46*2*pi/ulx,y,z
   ENINI  =  600.0     initial cutoff
   ENAUG  =  758.8 eV  augmentation charge cutoff
   NELM   =    200;   NELMIN=  8; NELMDL= -5     # of ELM steps
   EDIFF  = 0.1E-06   stopping-criterion for ELM
   LREAL  =      F    real-space projection
   NLSPLINE    = F    spline interpolate recip. space projectors
   LCOMPAT=      F    compatible to vasp.4.4
   GGA_COMPAT  = T    GGA compatible to vasp.4.4-vasp.4.6
   LMAXPAW     = -100 max onsite density
   LMAXMIX     =    2 max onsite mixed and CHGCAR
   VOSKOWN=      0    Vosko Wilk Nusair interpolation
   ROPT   =    0.00000   0.00000
 Ionic relaxation
   EDIFFG = -.5E-02   stopping-criterion for IOM
   NSW    =   1000    number of steps for IOM
   NBLOCK =      1;   KBLOCK =   1000    inner block; outer block
   IBRION =      2    ionic relax: 0-MD 1-quasi-New 2-CG
   NFREE  =      1    steps in history (QN), initial steepest desc. (CG)
   ISIF   =      3    stress and relaxation
   IWAVPR =     11    prediction:  0-non 1-charg 2-wave 3-comb
   ISYM   =      2    0-nonsym 1-usesym 2-fastsym
   LCORR  =      T    Harris-Foulkes like correction to forces

   POTIM  = 0.5000    time-step for ionic-motion
   TEIN   =    0.0    initial temperature
   TEBEG  =    0.0;   TEEND  =   0.0 temperature during run
   SMASS  =  -3.00    Nose mass-parameter (am)
   estimated Nose-frequenzy (Omega)   =  0.10E-29 period in steps = 0.13E+47 mass=  -0.410E-27a.u.
   SCALEE = 1.0000    scale energy and forces
   NPACO  =    256;   APACO  = 10.0  distance and # of slots for P.C.
   PSTRESS=    0.0 pullay stress

  Mass of Ions in am
   POMASS =  24.30 16.00
  Ionic Valenz
   ZVAL   =   8.00  6.00
  Atomic Wigner-Seitz radii
   RWIGS  =  -1.00 -1.00
  virtual crystal weights
   VCA    =   1.00  1.00
   NELECT =      56.0000    total number of electrons
   NUPDOWN=      -1.0000    fix difference up-down

 DOS related values:
   EMIN   =  10.00;   EMAX   =-10.00  energy-range for DOS
   EFERMI =   0.00
   ISMEAR =     0;   SIGMA  =   0.05  broadening in eV -4-tet -1-fermi 0-gaus

 Electronic relaxation 2 (details)
   IALGO  =     58    algorithm
   LDIAG  =      T    sub-space diagonalisation (order eigenvalues)
   LSUBROT=      F    optimize rotation matrix (better conditioning)
   TURBO    =      0    0=normal 1=particle mesh
   IRESTART =      0    0=no restart 2=restart with 2 vectors
   NREBOOT  =      0    no. of reboots
   NMIN     =      0    reboot dimension
   EREF     =   0.00    reference energy to select bands
   IMIX   =      4    mixing-type and parameters
     AMIX     =   0.40;   BMIX     =  1.00
     AMIX_MAG =   1.60;   BMIX_MAG =  1.00
     AMIN     =   0.10
     WC   =   100.;   INIMIX=   1;  MIXPRE=   1;  MAXMIX= -45

 Intra band minimization:
   WEIMIN = 0.0010     energy-eigenvalue tresh-hold
   EBREAK =  0.26E-09  absolut break condition
   DEPER  =   0.30     relativ break condition

   TIME   =   0.40     timestep for ELM

  volume/ion in A,a.u.               =       9.48        64.01
  Fermi-wavevector in a.u.,A,eV,Ry     =   1.479440  2.795736 29.779644  2.188742
  Thomas-Fermi vector in A             =   2.593597

 Write flags
   LWAVE        =      F    write WAVECAR
   LDOWNSAMPLE  =      F    k-point downsampling of WAVECAR
   LCHARG       =      F    write CHGCAR
   LVTOT        =      F    write LOCPOT, total local potential
   LVHAR        =      F    write LOCPOT, Hartree potential only
   LELF         =      F    write electronic localiz. function (ELF)
   LORBIT       =      0    0 simple, 1 ext, 2 COOP (PROOUT), +10 PAW based schemes


 Dipole corrections
   LMONO  =      F    monopole corrections only (constant potential shift)
   LDIPOL =      F    correct potential (dipole corrections)
   IDIPOL =      0    1-x, 2-y, 3-z, 4-all directions
   EPSILON=  1.0000000 bulk dielectric constant

 Exchange correlation treatment:
   GGA     =    PE    GGA type
   LEXCH   =     8    internal setting for exchange type
   LIBXC   =     F    Libxc
   VOSKOWN =     0    Vosko Wilk Nusair interpolation
   LHFCALC =     F    Hartree Fock is set to
   LHFONE  =     F    Hartree Fock one center treatment
   AEXX    =    0.0000 exact exchange contribution

 Linear response parameters
   LEPSILON=     F    determine dielectric tensor
   LRPA    =     F    only Hartree local field effects (RPA)
   LNABLA  =     F    use nabla operator in PAW spheres
   LVEL    =     F    velocity operator in full k-point grid
   CSHIFT  =0.1000    complex shift for real part using Kramers Kronig
   OMEGAMAX=  -1.0    maximum frequency
   DEG_THRESHOLD= 0.2000000E-02 threshold for treating states as degnerate
   RTIME   =   -0.100 relaxation time in fs
  (WPLASMAI=    0.000 imaginary part of plasma frequency in eV, 0.658/RTIME)
   DFIELD  = 0.0000000 0.0000000 0.0000000 field for delta impulse in time

  Optional k-point grid parameters
   LKPOINTS_OPT  =     F    use optional k-point grid
   KPOINTS_OPT_MODE=     1    mode for optional k-point grid

 Orbital magnetization related:
   ORBITALMAG=     F  switch on orbital magnetization
   LCHIMAG   =     F  perturbation theory with respect to B field
   DQ        =  0.001000  dq finite difference perturbation B field
   LLRAUG    =     F  two centre corrections for induced B field



--------------------------------------------------------------------------------------------------------


 conjugate gradient relaxation of ions
 charge density and potential will be updated during run
 non-spin polarized calculation
 Conjugate gradient for all bands (Freysoldt, et al. PRB 79, 241103 (2009))
 preconditioned conjugated gradient
 perform sub-space diagonalisation
    before iterative eigenvector-optimisation
 modified Broyden-mixing scheme, WC =      100.0
 initial mixing is a Kerker type mixing with AMIX =  0.4000 and BMIX =      1.0000
 Hartree-type preconditioning will be used
 using additional bands           68
 reciprocal scheme for non local part
 use partial core corrections
 no Harris-corrections to forces
 use gradient corrections
 use of overlap-Matrix (Vanderbilt PP)
 Gauss-broadening in eV      SIGMA  =   0.05


--------------------------------------------------------------------------------------------------------


  energy-cutoff  :      600.00
  volume of cell :       75.88
      direct lattice vectors                 reciprocal lattice vectors
     4.233571315  0.000000000  0.000000000     0.236207194  0.000000000  0.000000000
    -0.000000000  4.233571315  0.000000000    -0.000000000  0.236207194  0.000000000
    -0.000000000 -0.000000000  4.233571315     0.000000000 -0.000000000  0.236207194

  length of vectors
     4.233571315  4.233571315  4.233571315     0.236207194  0.236207194  0.236207194



 k-points in units of 2pi/SCALE and weight: pymatgen v2020.8.13 with grid density =
   0.00000000  0.00000000  0.00000000       0.002
   0.02952590  0.00000000  0.00000000       0.012
   0.05905180  0.00000000  0.00000000       0.012
   0.08857770  0.00000000  0.00000000       0.012
   0.11810360  0.00000000  0.00000000       0.006
   0.02952590  0.02952590  0.00000000       0.023
   0.05905180  0.02952590  0.00000000       0.047
   0.08857770  0.02952590  0.00000000       0.047
   0.11810360  0.02952590  0.00000000       0.023
   0.05905180  0.05905180  0.00000000       0.023
   0.08857770  0.05905180  0.00000000       0.047
   0.11810360  0.05905180  0.00000000       0.023
   0.08857770  0.08857770  0.00000000       0.023
   0.11810360  0.08857770  0.00000000       0.023
   0.11810360  0.11810360  0.00000000       0.006
   0.02952590  0.02952590  0.02952590       0.016
   0.05905180  0.02952590  0.02952590       0.047
   0.08857770  0.02952590  0.02952590       0.047
   0.11810360  0.02952590  0.02952590       0.023
   0.05905180  0.05905180  0.02952590       0.047
   0.08857770  0.05905180  0.02952590       0.094
   0.11810360  0.05905180  0.02952590       0.047
   0.08857770  0.08857770  0.02952590       0.047
   0.11810360  0.08857770  0.02952590       0.047
   0.11810360  0.11810360  0.02952590       0.012
   0.05905180  0.05905180  0.05905180       0.016
   0.08857770  0.05905180  0.05905180       0.047
   0.11810360  0.05905180  0.05905180       0.023
   0.08857770  0.08857770  0.05905180       0.047
   0.11810360  0.08857770  0.05905180       0.047
   0.11810360  0.11810360  0.05905180       0.012
   0.08857770  0.08857770  0.08857770       0.016
   0.11810360  0.08857770  0.08857770       0.023
   0.11810360  0.11810360  0.08857770       0.012
   0.11810360  0.11810360  0.11810360       0.002

 k-points in reciprocal lattice and weights: pymatgen v2020.8.13 with grid density =
   0.00000000  0.00000000  0.00000000       0.002
   0.12500000  0.00000000  0.00000000       0.012
   0.25000000  0.00000000  0.00000000       0.012
   0.37500000  0.00000000  0.00000000       0.012
   0.50000000  0.00000000  0.00000000       0.006
   0.12500000  0.12500000  0.00000000       0.023
   0.25000000  0.12500000  0.00000000       0.047
   0.37500000  0.12500000  0.00000000       0.047
   0.50000000  0.12500000  0.00000000       0.023
   0.25000000  0.25000000  0.00000000       0.023
   0.37500000  0.25000000  0.00000000       0.047
   0.50000000  0.25000000  0.00000000       0.023
   0.37500000  0.37500000  0.00000000       0.023
   0.50000000  0.37500000  0.00000000       0.023
   0.50000000  0.50000000  0.00000000       0.006
   0.12500000  0.12500000  0.12500000       0.016
   0.25000000  0.12500000  0.12500000       0.047
   0.37500000  0.12500000  0.12500000       0.047
   0.50000000  0.12500000  0.12500000       0.023
   0.25000000  0.25000000  0.12500000       0.047
   0.37500000  0.25000000  0.12500000       0.094
   0.50000000  0.25000000  0.12500000       0.047
   0.37500000  0.37500000  0.12500000       0.047
   0.50000000  0.37500000  0.12500000       0.047
   0.50000000  0.50000000  0.12500000       0.012
   0.25000000  0.25000000  0.25000000       0.016
   0.37500000  0.25000000  0.25000000       0.047
   0.50000000  0.25000000  0.25000000       0.023
   0.37500000  0.37500000  0.25000000       0.047
   0.50000000  0.37500000  0.25000000       0.047
   0.50000000  0.50000000  0.25000000       0.012
   0.37500000  0.37500000  0.37500000       0.016
   0.50000000  0.37500000  0.37500000       0.023
   0.50000000  0.50000000  0.37500000       0.012
   0.50000000  0.50000000  0.50000000       0.002

 position of ions in fractional coordinates (direct lattice)
   0.00000000  0.00000000  0.00000000
   0.00000000  0.50000000  0.50000000
   0.50000000  0.00000000  0.50000000
   0.50000000  0.50000000  0.00000000
   0.50000000  0.00000000  0.00000000
   0.50000000  0.50000000  0.50000000
   0.00000000  0.00000000  0.50000000
   0.00000000  0.50000000  0.00000000

 position of ions in cartesian coordinates  (Angst):
   0.00000000  0.00000000  0.00000000
   0.00000000  2.11678566  2.11678566
   2.11678566  0.00000000  2.11678566
   2.11678566  2.11678566  0.00000000
   2.11678566  0.00000000  0.00000000
   2.11678566  2.11678566  2.11678566
   0.00000000  0.00000000  2.11678566
   0.00000000  2.11678566  0.00000000



--------------------------------------------------------------------------------------------------------


 k-point   1 :   0.0000 0.0000 0.0000  plane waves:    2517
 k-point   2 :   0.1250 0.0000 0.0000  plane waves:    2521
 k-point   3 :   0.2500 0.0000 0.0000  plane waves:    2521
 k-point   4 :   0.3750 0.0000 0.0000  plane waves:    2545
 k-point   5 :   0.5000 0.0000 0.0000  plane waves:    2560
 k-point   6 :   0.1250 0.1250 0.0000  plane waves:    2534
 k-point   7 :   0.2500 0.1250 0.0000  plane waves:    2530
 k-point   8 :   0.3750 0.1250 0.0000  plane waves:    2536
 k-point   9 :   0.5000 0.1250 0.0000  plane waves:    2524
 k-point  10 :   0.2500 0.2500 0.0000  plane waves:    2524
 k-point  11 :   0.3750 0.2500 0.0000  plane waves:    2542
 k-point  12 :   0.5000 0.2500 0.0000  plane waves:    2546
 k-point  13 :   0.3750 0.3750 0.0000  plane waves:    2540
 k-point  14 :   0.5000 0.3750 0.0000  plane waves:    2538
 k-point  15 :   0.5000 0.5000 0.0000  plane waves:    2496
 k-point  16 :   0.1250 0.1250 0.1250  plane waves:    2536
 k-point  17 :   0.2500 0.1250 0.1250  plane waves:    2541
 k-point  18 :   0.3750 0.1250 0.1250  plane waves:    2544
 k-point  19 :   0.5000 0.1250 0.1250  plane waves:    2526
 k-point  20 :   0.2500 0.2500 0.1250  plane waves:    2546
 k-point  21 :   0.3750 0.2500 0.1250  plane waves:    2541
 k-point  22 :   0.5000 0.2500 0.1250  plane waves:    2530
 k-point  23 :   0.3750 0.3750 0.1250  plane waves:    2529
 k-point  24 :   0.5000 0.3750 0.1250  plane waves:    2534
 k-point  25 :   0.5000 0.5000 0.1250  plane waves:    2520
 k-point  26 :   0.2500 0.2500 0.2500  plane waves:    2542
 k-point  27 :   0.3750 0.2500 0.2500  plane waves:    2518
 k-point  28 :   0.5000 0.2500 0.2500  plane waves:    2534
 k-point  29 :   0.3750 0.3750 0.2500  plane waves:    2524
 k-point  30 :   0.5000 0.3750 0.2500  plane waves:    2520
 k-point  31 :   0.5000 0.5000 0.2500  plane waves:    2504
 k-point  32 :   0.3750 0.3750 0.3750  plane waves:    2515
 k-point  33 :   0.5000 0.3750 0.3750  plane waves:    2508
 k-point  34 :   0.5000 0.5000 0.3750  plane waves:    2512
 k-point  35 :   0.5000 0.5000 0.5000  plane waves:    2512

 maximum and minimum number of plane-waves per node :       654      616

 maximum number of plane-waves:      2560
 maximum index in each direction:
   IXMAX=    8   IYMAX=    8   IZMAX=    8
   IXMIN=   -8   IYMIN=   -8   IZMIN=   -8


 parallel 3D FFT for wavefunctions:
    minimum data exchange during FFTs selected (reduces bandwidth)
 parallel 3D FFT for charge:
    minimum data exchange during FFTs selected (reduces bandwidth)


 total amount of memory used by VASP MPI-rank0    37050. kBytes
=======================================================================

   base      :      30000. kBytes
   nonl-proj :       4978. kBytes
   fftplans  :        364. kBytes
   grid      :        402. kBytes
   one-center:         16. kBytes
   wavefun   :       1290. kBytes

     INWAV:  cpu time      0.0001: real time      0.0003
 Broyden mixing: mesh for mixing (old mesh)
   NGX = 17   NGY = 17   NGZ = 17
  (NGX  = 56   NGY  = 56   NGZ  = 56)
  gives a total of   4913 points

 initial charge density was supplied:
 charge density of overlapping atoms calculated
 number of electron      56.0000000 magnetization
 keeping initial charge density in first step


--------------------------------------------------------------------------------------------------------


 Maximum index for augmentation-charges          373 (set IRDMAX)


--------------------------------------------------------------------------------------------------------


 First call to EWALD:  gamma=   0.419
 Maximum number of real-space cells 3x 3x 3
 Maximum number of reciprocal cells 3x 3x 3

    FEWALD:  cpu time      0.0007: real time      0.0007


--------------------------------------- Iteration      1(   1)  ---------------------------------------


    POTLOK:  cpu time      0.0318: real time      0.0322
    SETDIJ:  cpu time      0.1123: real time      0.1123
    TRIAL :  cpu time      2.9771: real time      2.9778
    CORREC:  cpu time      0.0006: real time      0.0006
    --------------------------------------------
      LOOP:  cpu time      3.1236: real time      3.1252

 eigenvalue-minimisations  :  6720
 total energy-change (2. order) : 0.5363245E+02  (-0.4719031E+04)
 number of electron      56.0000000 magnetization
 augmentation part       56.0000000 magnetization

 Free energy of the ion-electron system (eV)
  ---------------------------------------------------
  alpha Z        PSCENC =       273.92282730
  Ewald energy   TEWEN  =     -3830.58558410
  -Hartree energ DENC   =     -1187.20888300
  -exchange      EXHF   =         0.00000000
  -V(xc)+E(xc)   XCENC  =       220.17950964
  PAW double counting   =      3981.86741742    -4460.98340483
  entropy T*S    EENTRO =        -0.00000000
  eigenvalues    EBANDS =      -899.85650181
  atomic energy  EATOM  =      5956.29707161
  ---------------------------------------------------
  free energy    TOTEN  =        53.63245224 eV

  energy without entropy =       53.63245224  energy(sigma->0) =       53.63245224


--------------------------------------------------------------------------------------------------------




--------------------------------------- Iteration      1(   2)  ---------------------------------------


    TRIAL :  cpu time      7.2993: real time      7.3009
    CORREC:  cpu time      0.0005: real time      0.0005
    --------------------------------------------
      LOOP:  cpu time      7.3049: real time      7.3148

 eigenvalue-minimisations  : 10080
 total energy-change (2. order) :-0.1072355E+03  (-0.1072355E+03)
 number of electron      56.0000000 magnetization
 augmentation part       56.0000000 magnetization

 Free energy of the ion-electron system (eV)
  ---------------------------------------------------
  alpha Z        PSCENC =       273.92282730
  Ewald energy   TEWEN  =     -3830.58558410
  -Hartree energ DENC   =     -1187.20888300
  -exchange      EXHF   =         0.00000000
  -V(xc)+E(xc)   XCENC  =       220.17950964
  PAW double counting   =      3981.86741742    -4460.98340483
  entropy T*S    EENTRO =        -0.00000000
  eigenvalues    EBANDS =     -1007.09203730
  atomic energy  EATOM  =      5956.29707161
  ---------------------------------------------------
  free energy    TOTEN  =       -53.60308326 eV

  energy without entropy =      -53.60308326  energy(sigma->0) =      -53.60308326


--------------------------------------------------------------------------------------------------------




--------------------------------------- Iteration      1(   3)  ---------------------------------------


    TRIAL :  cpu time      2.8316: real time      2.8324
    CORREC:  cpu time      0.0005: real time      0.0005
    --------------------------------------------
      LOOP:  cpu time      2.8370: real time      2.8461

 eigenvalue-minimisations  :  6720
 total energy-change (2. order) :-0.1681238E+00  (-0.1681238E+00)
 number of electron      56.0000000 magnetization
 augmentation part       56.0000000 magnetization

 Free energy of the ion-electron system (eV)
  ---------------------------------------------------
  alpha Z        PSCENC =       273.92282730
  Ewald energy   TEWEN  =     -3830.58558410
  -Hartree energ DENC   =     -1187.20888300
  -exchange      EXHF   =         0.00000000
  -V(xc)+E(xc)   XCENC  =       220.17950964
  PAW double counting   =      3981.86741742    -4460.98340483
  entropy T*S    EENTRO =        -0.00000000
  eigenvalues    EBANDS =     -1007.26016108
  atomic energy  EATOM  =      5956.29707161
  ---------------------------------------------------
  free energy    TOTEN  =       -53.77120703 eV

  energy without entropy =      -53.77120703  energy(sigma->0) =      -53.77120703


--------------------------------------------------------------------------------------------------------




--------------------------------------- Iteration      1(   4)  ---------------------------------------


    TRIAL :  cpu time     15.1247: real time     15.1285
    CORREC:  cpu time      0.0005: real time      0.0005
    --------------------------------------------
      LOOP:  cpu time     15.1389: real time     15.1433

 eigenvalue-minimisations  : 13152
 total energy-change (2. order) :-0.1106950E-03  (-0.1106950E-03)
 number of electron      56.0000000 magnetization
 augmentation part       56.0000000 magnetization

 Free energy of the ion-electron system (eV)
  ---------------------------------------------------
  alpha Z        PSCENC =       273.92282730
  Ewald energy   TEWEN  =     -3830.58558410
  -Hartree energ DENC   =     -1187.20888300
  -exchange      EXHF   =         0.00000000
  -V(xc)+E(xc)   XCENC  =       220.17950964
  PAW double counting   =      3981.86741742    -4460.98340483
  entropy T*S    EENTRO =        -0.00000000
  eigenvalues    EBANDS =     -1007.26027177
  atomic energy  EATOM  =      5956.29707161
  ---------------------------------------------------
  free energy    TOTEN  =       -53.77131773 eV

  energy without entropy =      -53.77131773  energy(sigma->0) =      -53.77131773


--------------------------------------------------------------------------------------------------------




--------------------------------------- Iteration      1(   5)  ---------------------------------------


    TRIAL :  cpu time      2.7186: real time      2.7193
    CORREC:  cpu time      0.0005: real time      0.0005
    CHARGE:  cpu time      0.0105: real time      0.0106
    --------------------------------------------
      LOOP:  cpu time      2.7334: real time      2.7439

 eigenvalue-minimisations  :  6720
 total energy-change (2. order) :-0.5129550E-09  (-0.5110616E-09)
 number of electron      55.9999911 magnetization
 augmentation part       19.8286556 magnetization

 Free energy of the ion-electron system (eV)
  ---------------------------------------------------
  alpha Z        PSCENC =       273.92282730
  Ewald energy   TEWEN  =     -3830.58558410
  -Hartree energ DENC   =     -1187.20888300
  -exchange      EXHF   =         0.00000000
  -V(xc)+E(xc)   XCENC  =       220.17950964
  PAW double counting   =      3981.86741742    -4460.98340483
  entropy T*S    EENTRO =        -0.00000000
  eigenvalues    EBANDS =     -1007.26027177
  atomic energy  EATOM  =      5956.29707161
  ---------------------------------------------------
  free energy    TOTEN  =       -53.77131773 eV

  energy without entropy =      -53.77131773  energy(sigma->0) =      -53.77131773


--------------------------------------------------------------------------------------------------------




--------------------------------------- Iteration      1(   6)  ---------------------------------------


    POTLOK:  cpu time      0.0103: real time      0.0103
    SETDIJ:  cpu time      0.1152: real time      0.1152
    TRIAL :  cpu time     12.3222: real time     12.3252
    CORREC:  cpu time      0.5337: real time      0.5343
    CHARGE:  cpu time      0.0083: real time      0.0083
    --------------------------------------------
      LOOP:  cpu time     12.9934: real time     13.0066

 eigenvalue-minimisations  :     0
 total energy-change (2. order) : 0.1746083E+02  (-0.1067518E+02)
 number of electron      55.9999914 magnetization
 augmentation part       19.3633704 magnetization

 Free energy of the ion-electron system (eV)
  ---------------------------------------------------
  alpha Z        PSCENC =       273.92282730
  Ewald energy   TEWEN  =     -3830.58558410
  -Hartree energ DENC   =     -1339.92277482
  -exchange      EXHF   =         0.00000000
  -V(xc)+E(xc)   XCENC  =       233.77763565
  PAW double counting   =      4514.75823144    -4988.20301504
  entropy T*S    EENTRO =        -0.00000000
  eigenvalues    EBANDS =      -856.35488328
  atomic energy  EATOM  =      5956.29707161
  ---------------------------------------------------
  free energy    TOTEN  =       -36.31049123 eV

  energy without entropy =      -36.31049123  energy(sigma->0) =      -36.31049123


--------------------------------------------------------------------------------------------------------




--------------------------------------- Iteration      1(   7)  ---------------------------------------


    POTLOK:  cpu time      0.0122: real time      0.0122
    SETDIJ:  cpu time      0.1130: real time      0.1130
    TRIAL :  cpu time      0.4459: real time      0.4460
    CORREC:  cpu time      0.5298: real time      0.5298
    CHARGE:  cpu time      0.0083: real time      0.0083
    --------------------------------------------
      LOOP:  cpu time      1.1211: real time      1.1216

 eigenvalue-minimisations  :     0
 total energy-change (2. order) :-0.1054282E+02  (-0.5841509E+00)
 number of electron      55.9999915 magnetization
 augmentation part       19.3041457 magnetization

 Free energy of the ion-electron system (eV)
  ---------------------------------------------------
  alpha Z        PSCENC =       273.92282730
  Ewald energy   TEWEN  =     -3830.58558410
  -Hartree energ DENC   =     -1233.16828939
  -exchange      EXHF   =         0.00000000
  -V(xc)+E(xc)   XCENC  =       225.45836945
  PAW double counting   =      4464.74640185    -4942.99152167
  entropy T*S    EENTRO =        -0.00000000
  eigenvalues    EBANDS =      -960.53258294
  atomic energy  EATOM  =      5956.29707161
  ---------------------------------------------------
  free energy    TOTEN  =       -46.85330789 eV

  energy without entropy =      -46.85330789  energy(sigma->0) =      -46.85330789


--------------------------------------------------------------------------------------------------------




--------------------------------------- Iteration      1(   8)  ---------------------------------------


    POTLOK:  cpu time      0.0078: real time      0.0078
    SETDIJ:  cpu time      0.1171: real time      0.1171
    TRIAL :  cpu time      0.4452: real time      0.4453
    CORREC:  cpu time      0.5290: real time      0.5290
    CHARGE:  cpu time      0.0083: real time      0.0083
    --------------------------------------------
      LOOP:  cpu time      1.1114: real time      1.1206

 eigenvalue-minimisations  :     0
 total energy-change (2. order) :-0.5881358E+00  (-0.3389983E-01)
 number of electron      55.9999915 magnetization
 augmentation part       19.3315225 magnetization

 Free energy of the ion-electron system (eV)
  ---------------------------------------------------
  alpha Z        PSCENC =       273.92282730
  Ewald energy   TEWEN  =     -3830.58558410
  -Hartree energ DENC   =     -1231.29746771
  -exchange      EXHF   =         0.00000000
  -V(xc)+E(xc)   XCENC  =       225.08251780
  PAW double counting   =      4378.67034505    -4856.00999877
  entropy T*S    EENTRO =        -0.00000000
  eigenvalues    EBANDS =      -963.52115483
  atomic energy  EATOM  =      5956.29707161
  ---------------------------------------------------
  free energy    TOTEN  =       -47.44144365 eV

  energy without entropy =      -47.44144365  energy(sigma->0) =      -47.44144365


--------------------------------------------------------------------------------------------------------




--------------------------------------- Iteration      1(   9)  ---------------------------------------


    POTLOK:  cpu time      0.0104: real time      0.0104
    SETDIJ:  cpu time      0.1148: real time      0.1148
    TRIAL :  cpu time      0.4441: real time      0.4443
    CORREC:  cpu time      0.5289: real time      0.5289
    CHARGE:  cpu time      0.0085: real time      0.0085
    --------------------------------------------
      LOOP:  cpu time      1.1113: real time      1.1195

 eigenvalue-minimisations  :     0
 total energy-change (2. order) :-0.3391477E-01  (-0.2303543E-02)
 number of electron      55.9999915 magnetization
 augmentation part       19.3313848 magnetization

 Free energy of the ion-electron system (eV)
  ---------------------------------------------------
  alpha Z        PSCENC =       273.92282730
  Ewald energy   TEWEN  =     -3830.58558410
  -Hartree energ DENC   =     -1232.09296494
  -exchange      EXHF   =         0.00000000
  -V(xc)+E(xc)   XCENC  =       225.12636620
  PAW double counting   =      4372.67485928    -4851.29420004
  entropy T*S    EENTRO =        -0.00000000
  eigenvalues    EBANDS =      -961.52373375
  atomic energy  EATOM  =      5956.29707161
  ---------------------------------------------------
  free energy    TOTEN  =       -47.47535842 eV

  energy without entropy =      -47.47535842  energy(sigma->0) =      -47.47535842


--------------------------------------------------------------------------------------------------------




--------------------------------------- Iteration      1(  10)  ---------------------------------------


    POTLOK:  cpu time      0.0082: real time      0.0082
    SETDIJ:  cpu time      0.1168: real time      0.1168
    TRIAL :  cpu time      0.4441: real time      0.4442
    CORREC:  cpu time      0.5287: real time      0.5287
    CHARGE:  cpu time      0.0084: real time      0.0084
    --------------------------------------------
      LOOP:  cpu time      1.1184: real time      1.1191

 eigenvalue-minimisations  :     0
 total energy-change (2. order) :-0.2308922E-02  (-0.1863386E-03)
 number of electron      55.9999915 magnetization
 augmentation part       19.3306575 magnetization

 Free energy of the ion-electron system (eV)
  ---------------------------------------------------
  alpha Z        PSCENC =       273.92282730
  Ewald energy   TEWEN  =     -3830.58558410
  -Hartree energ DENC   =     -1231.75042915
  -exchange      EXHF   =         0.00000000
  -V(xc)+E(xc)   XCENC  =       225.09771817
  PAW double counting   =      4368.58652505    -4847.12128514
  entropy T*S    EENTRO =        -0.00000000
  eigenvalues    EBANDS =      -961.92451110
  atomic energy  EATOM  =      5956.29707161
  ---------------------------------------------------
  free energy    TOTEN  =       -47.47766735 eV

  energy without entropy =      -47.47766735  energy(sigma->0) =      -47.47766735


--------------------------------------------------------------------------------------------------------




--------------------------------------- Iteration      1(  11)  ---------------------------------------


    POTLOK:  cpu time      0.0086: real time      0.0086
    SETDIJ:  cpu time      0.1167: real time      0.1167
    TRIAL :  cpu time      0.4445: real time      0.4445
    CORREC:  cpu time      0.5295: real time      0.5297
    CHARGE:  cpu time      0.0084: real time      0.0084
    --------------------------------------------
      LOOP:  cpu time      1.1124: real time      1.1224

 eigenvalue-minimisations  :     0
 total energy-change (2. order) :-0.1870310E-03  (-0.5269868E-04)
 number of electron      55.9999915 magnetization
 augmentation part       19.3306143 magnetization

 Free energy of the ion-electron system (eV)
  ---------------------------------------------------
  alpha Z        PSCENC =       273.92282730
  Ewald energy   TEWEN  =     -3830.58558410
  -Hartree energ DENC   =     -1231.68208861
  -exchange      EXHF   =         0.00000000
  -V(xc)+E(xc)   XCENC  =       225.09068242
  PAW double counting   =      4367.50854759    -4846.00131465
  entropy T*S    EENTRO =        -0.00000000
  eigenvalues    EBANDS =      -962.02799595
  atomic energy  EATOM  =      5956.29707161
  ---------------------------------------------------
  free energy    TOTEN  =       -47.47785438 eV

  energy without entropy =      -47.47785438  energy(sigma->0) =      -47.47785438


--------------------------------------------------------------------------------------------------------




--------------------------------------- Iteration      1(  12)  ---------------------------------------


    POTLOK:  cpu time      0.0105: real time      0.0105
    SETDIJ:  cpu time      0.1144: real time      0.1145
    TRIAL :  cpu time      0.4440: real time      0.4441
    CORREC:  cpu time      0.5294: real time      0.5295
    CHARGE:  cpu time      0.0083: real time      0.0083
    --------------------------------------------
      LOOP:  cpu time      1.1108: real time      1.1197

 eigenvalue-minimisations  :     0
 total energy-change (2. order) :-0.5217165E-04  (-0.1419340E-04)
 number of electron      55.9999915 magnetization
 augmentation part       19.3305684 magnetization

 Free energy of the ion-electron system (eV)
  ---------------------------------------------------
  alpha Z        PSCENC =       273.92282730
  Ewald energy   TEWEN  =     -3830.58558410
  -Hartree energ DENC   =     -1231.69172690
  -exchange      EXHF   =         0.00000000
  -V(xc)+E(xc)   XCENC  =       225.08972491
  PAW double counting   =      4367.65990540    -4846.14780069
  entropy T*S    EENTRO =        -0.00000000
  eigenvalues    EBANDS =      -962.02232409
  atomic energy  EATOM  =      5956.29707161
  ---------------------------------------------------
  free energy    TOTEN  =       -47.47790655 eV

  energy without entropy =      -47.47790655  energy(sigma->0) =      -47.47790655


--------------------------------------------------------------------------------------------------------




--------------------------------------- Iteration      1(  13)  ---------------------------------------


    POTLOK:  cpu time      0.0078: real time      0.0078
    SETDIJ:  cpu time      0.1171: real time      0.1171
    TRIAL :  cpu time      0.4445: real time      0.4445
    CORREC:  cpu time      0.5296: real time      0.5298
    CHARGE:  cpu time      0.0082: real time      0.0082
    --------------------------------------------
      LOOP:  cpu time      1.1202: real time      1.1206

 eigenvalue-minimisations  :     0
 total energy-change (2. order) :-0.1400212E-04  (-0.2305915E-05)
 number of electron      55.9999915 magnetization
 augmentation part       19.3305011 magnetization

 Free energy of the ion-electron system (eV)
  ---------------------------------------------------
  alpha Z        PSCENC =       273.92282730
  Ewald energy   TEWEN  =     -3830.58558410
  -Hartree energ DENC   =     -1231.69979658
  -exchange      EXHF   =         0.00000000
  -V(xc)+E(xc)   XCENC  =       225.08986168
  PAW double counting   =      4367.90446663    -4846.38892841
  entropy T*S    EENTRO =        -0.00000000
  eigenvalues    EBANDS =      -962.01783868
  atomic energy  EATOM  =      5956.29707161
  ---------------------------------------------------
  free energy    TOTEN  =       -47.47792055 eV

  energy without entropy =      -47.47792055  energy(sigma->0) =      -47.47792055


--------------------------------------------------------------------------------------------------------




--------------------------------------- Iteration      1(  14)  ---------------------------------------


    POTLOK:  cpu time      0.0092: real time      0.0092
    SETDIJ:  cpu time      0.1158: real time      0.1158
    TRIAL :  cpu time      0.4443: real time      0.4443
    CORREC:  cpu time      0.5335: real time      0.5336
    CHARGE:  cpu time      0.0082: real time      0.0082
    --------------------------------------------
      LOOP:  cpu time      1.1155: real time      1.1244

 eigenvalue-minimisations  :     0
 total energy-change (2. order) :-0.2359170E-05  (-0.2220999E-06)
 number of electron      55.9999915 magnetization
 augmentation part       19.3305146 magnetization

 Free energy of the ion-electron system (eV)
  ---------------------------------------------------
  alpha Z        PSCENC =       273.92282730
  Ewald energy   TEWEN  =     -3830.58558410
  -Hartree energ DENC   =     -1231.69864870
  -exchange      EXHF   =         0.00000000
  -V(xc)+E(xc)   XCENC  =       225.08971866
  PAW double counting   =      4367.94683679    -4846.42700878
  entropy T*S    EENTRO =        -0.00000000
  eigenvalues    EBANDS =      -962.02313569
  atomic energy  EATOM  =      5956.29707161
  ---------------------------------------------------
  free energy    TOTEN  =       -47.47792291 eV

  energy without entropy =      -47.47792291  energy(sigma->0) =      -47.47792291


--------------------------------------------------------------------------------------------------------




--------------------------------------- Iteration      1(  15)  ---------------------------------------


    POTLOK:  cpu time      0.0098: real time      0.0098
    SETDIJ:  cpu time      0.1153: real time      0.1153
    TRIAL :  cpu time      0.4457: real time      0.4457
    CORREC:  cpu time      0.5338: real time      0.5340
    CHARGE:  cpu time      0.0083: real time      0.0083
    --------------------------------------------
      LOOP:  cpu time      1.1175: real time      1.1265

 eigenvalue-minimisations  :     0
 total energy-change (2. order) :-0.2324196E-06  (-0.3822519E-07)
 number of electron      55.9999915 magnetization
 augmentation part       19.3305350 magnetization

 Free energy of the ion-electron system (eV)
  ---------------------------------------------------
  alpha Z        PSCENC =       273.92282730
  Ewald energy   TEWEN  =     -3830.58558410
  -Hartree energ DENC   =     -1231.70000541
  -exchange      EXHF   =         0.00000000
  -V(xc)+E(xc)   XCENC  =       225.08981118
  PAW double counting   =      4367.96536181    -4846.44569471
  entropy T*S    EENTRO =        -0.00000000
  eigenvalues    EBANDS =      -962.02171083
  atomic energy  EATOM  =      5956.29707161
  ---------------------------------------------------
  free energy    TOTEN  =       -47.47792314 eV

  energy without entropy =      -47.47792314  energy(sigma->0) =      -47.47792314


--------------------------------------------------------------------------------------------------------




--------------------------------------- Iteration      1(  16)  ---------------------------------------


    POTLOK:  cpu time      0.0078: real time      0.0078
    SETDIJ:  cpu time      0.1166: real time      0.1166
    TRIAL :  cpu time      0.4449: real time      0.4450
    CORREC:  cpu time      0.5277: real time      0.5277
    EDDIAG:  cpu time      0.3624: real time      0.3630
    CHARGE:  cpu time      0.0081: real time      0.0081
    --------------------------------------------
      LOOP:  cpu time      1.4721: real time      1.4814

 eigenvalue-minimisations  :     0
 total energy-change (2. order) :-0.3965761E-07  (-0.8214052E-08)
 number of electron      55.9999915 magnetization
 augmentation part       19.3305470 magnetization

 Free energy of the ion-electron system (eV)
  ---------------------------------------------------
  alpha Z        PSCENC =       273.92282730
  Ewald energy   TEWEN  =     -3830.58558410
  -Hartree energ DENC   =     -1231.70129381
  -exchange      EXHF   =         0.00000000
  -V(xc)+E(xc)   XCENC  =       225.08990876
  PAW double counting   =      4367.97560889    -4846.45682789
  entropy T*S    EENTRO =        -0.00000000
  eigenvalues    EBANDS =      -962.01963396
  atomic energy  EATOM  =      5956.29707161
  ---------------------------------------------------
  free energy    TOTEN  =       -47.47792318 eV

  energy without entropy =      -47.47792318  energy(sigma->0) =      -47.47792318


--------------------------------------------------------------------------------------------------------


  average scaling for gradient   1.3735


 average (electrostatic) potential at core
  the test charge radii are     0.8294  0.7215
  (the norm of the test charge is              1.0000)
       1 -41.4978       2 -41.4978       3 -41.4978       4 -41.4978       5 -70.0584
       6 -70.0584       7 -70.0584       8 -70.0584



 E-fermi :   2.9001     XC(G=0): -11.3693     alpha+bet :-12.5896

 Fermi energy:         2.9001144379

 k-point     1 :       0.0000    0.0000    0.0000
  band No.  band energies     occupation
      1     -36.4480      2.00000
      2     -36.4480      2.00000
      3     -36.4480      2.00000
      4     -36.4058      2.00000
      5     -36.4058      2.00000
      6     -36.4058      2.00000
      7     -36.4058      2.00000
      8     -36.4058      2.00000
      9     -36.4058      2.00000
     10     -36.3781      2.00000
     11     -36.3781      2.00000
     12     -36.3781      2.00000
     13     -14.4962      2.00000
     14     -12.9964      2.00000
     15     -12.9964      2.00000
     16     -12.9964      2.00000
     17      -1.3001      2.00000
     18      -1.3001      2.00000
     19      -1.3001      2.00000
     20       1.3743      2.00000
     21       1.3743      2.00000
     22       1.3743      2.00000
     23       1.3743      2.00000
     24       1.3743      2.00000
     25       1.3743      2.00000
     26       2.6940      2.00000
     27       2.6940      2.00000
     28       2.6940      2.00000
     29       7.2793      0.00000
     30      11.7966      0.00000
     31      11.7966      0.00000
     32      11.7966      0.00000
     33      12.5112      0.00000
     34      12.5112      0.00000
     35      12.5112      0.00000
     36      15.6328      0.00000
     37      15.6328      0.00000
     38      15.6328      0.00000
     39      18.4116      0.00000
     40      18.4116      0.00000
     41      18.4116      0.00000
     42      21.4623      0.00000
     43      21.4623      0.00000
     44      21.4623      0.00000
     45      21.4623      0.00000
     46      21.4623      0.00000
     47      21.4623      0.00000
     48      22.2805      0.00000
     49      24.0586      0.00000
     50      24.0586      0.00000
     51      26.7502      0.00000
     52      26.7502      0.00000
     53      26.7502      0.00000
     54      27.7215      0.00000
     55      27.7215      0.00000
     56      27.7215      0.00000
     57      29.3643      0.00000
     58      29.3643      0.00000
     59      29.3643      0.00000
     60      33.2342      0.00000
     61      33.2342      0.00000
     62      33.2342      0.00000
     63      33.2342      0.00000
     64      33.2342      0.00000
     65      33.2342      0.00000
     66      36.7477      0.00000
     67      36.7477      0.00000
     68      36.7477      0.00000
     69      39.5457      0.00000
     70      39.5457      0.00000
     71      39.5457      0.00000
     72      39.5457      0.00000
     73      39.5457      0.00000
     74      39.5457      0.00000
     75      40.7041      0.00000
     76      40.7041      0.00000
     77      40.7041      0.00000
     78      41.1287      0.00000
     79      41.3199      0.00000
     80      41.3199      0.00000
     81      41.3199      0.00000
     82      43.7337      0.00000
     83      43.7337      0.00000
     84      43.7337      0.00000
     85      43.7337      0.00000
     86      43.7337      0.00000
     87      43.7337      0.00000
     88      45.1260      0.00000
     89      45.1260      0.00000
     90      45.1260      0.00000
     91      45.9836      0.00000
     92      45.9836      0.00000
     93      45.9836      0.00000
     94      51.3937      0.00000
     95      51.3937      0.00000
     96      51.3937      0.00000

 k-point     2 :       0.1250    0.0000    0.0000
  band No.  band energies     occupation
      1     -36.4465      2.00000
      2     -36.4465      2.00000
      3     -36.4455      2.00000
      4     -36.4074      2.00000
      5     -36.4074      2.00000
      6     -36.4062      2.00000
      7     -36.4062      2.00000
      8     -36.4046      2.00000
      9     -36.4046      2.00000
     10     -36.3814      2.00000
     11     -36.3792      2.00000
     12     -36.3792      2.00000
     13     -14.4400      2.00000
     14     -13.0536      2.00000
     15     -12.9873      2.00000
     16     -12.9873      2.00000
     17      -1.2259      2.00000
     18      -1.2259      2.00000
     19      -1.2156      2.00000
     20       1.2260      2.00000
     21       1.2260      2.00000
     22       1.3094      2.00000
     23       1.3094      2.00000
     24       1.4166      2.00000
     25       1.4166      2.00000
     26       2.3813      2.00000
     27       2.6335      2.00000
     28       2.6335      2.00000
     29       7.6364      0.00000
     30      11.9241      0.00000
     31      12.0317      0.00000
     32      12.0317      0.00000
     33      12.4792      0.00000
     34      12.7469      0.00000
     35      12.7469      0.00000
     36      15.5524      0.00000
     37      15.5524      0.00000
     38      15.6565      0.00000
     39      17.6225      0.00000
     40      18.5433      0.00000
     41      18.5433      0.00000
     42      20.9630      0.00000
     43      20.9630      0.00000
     44      21.3510      0.00000
     45      21.3510      0.00000
     46      21.6209      0.00000
     47      21.6209      0.00000
     48      23.0866      0.00000
     49      23.3306      0.00000
     50      24.1780      0.00000
     51      26.9381      0.00000
     52      26.9381      0.00000
     53      27.5950      0.00000
     54      28.0084      0.00000
     55      28.0178      0.00000
     56      28.0178      0.00000
     57      28.9331      0.00000
     58      29.5812      0.00000
     59      29.5812      0.00000
     60      31.4591      0.00000
     61      31.4591      0.00000
     62      33.1616      0.00000
     63      33.1616      0.00000
     64      33.3278      0.00000
     65      33.3278      0.00000
     66      37.4393      0.00000
     67      37.9206      0.00000
     68      37.9206      0.00000
     69      38.5027      0.00000
     70      38.5027      0.00000
     71      39.0930      0.00000
     72      39.0930      0.00000
     73      39.8005      0.00000
     74      39.9947      0.00000
     75      39.9947      0.00000
     76      40.5295      0.00000
     77      40.5295      0.00000
     78      40.8910      0.00000
     79      41.5161      0.00000
     80      42.1190      0.00000
     81      42.1190      0.00000
     82      42.2318      0.00000
     83      42.9736      0.00000
     84      42.9736      0.00000
     85      43.4011      0.00000
     86      43.4011      0.00000
     87      44.9754      0.00000
     88      44.9754      0.00000
     89      45.6611      0.00000
     90      45.6611      0.00000
     91      46.7233      0.00000
     92      46.7233      0.00000
     93      49.8243      0.00000
     94      50.8688      0.00000
     95      50.8688      0.00000
     96      51.0947      0.00000

 k-point     3 :       0.2500    0.0000    0.0000
  band No.  band energies     occupation
      1     -36.4417      2.00000
      2     -36.4417      2.00000
      3     -36.4388      2.00000
      4     -36.4119      2.00000
      5     -36.4119      2.00000
      6     -36.4069      2.00000
      7     -36.4069      2.00000
      8     -36.4016      2.00000
      9     -36.4016      2.00000
     10     -36.3895      2.00000
     11     -36.3824      2.00000
     12     -36.3824      2.00000
     13     -14.2795      2.00000
     14     -13.2170      2.00000
     15     -12.9651      2.00000
     16     -12.9651      2.00000
     17      -1.0067      2.00000
     18      -1.0067      2.00000
     19      -0.9581      2.00000
     20       0.8370      2.00000
     21       0.8370      2.00000
     22       1.1574      2.00000
     23       1.1574      2.00000
     24       1.5397      2.00000
     25       1.5397      2.00000
     26       1.6649      2.00000
     27       2.4669      2.00000
     28       2.4669      2.00000
     29       8.4900      0.00000
     30      12.2218      0.00000
     31      12.3061      0.00000
     32      12.6514      0.00000
     33      12.6514      0.00000
     34      13.3871      0.00000
     35      13.3871      0.00000
     36      15.3038      0.00000
     37      15.3038      0.00000
     38      15.9383      0.00000
     39      16.2469      0.00000
     40      18.9079      0.00000
     41      18.9079      0.00000
     42      19.8288      0.00000
     43      19.8288      0.00000
     44      21.0371      0.00000
     45      21.0371      0.00000
     46      21.3825      0.00000
     47      22.1242      0.00000
     48      22.1242      0.00000
     49      24.5340      0.00000
     50      25.4890      0.00000
     51      27.5073      0.00000
     52      27.5073      0.00000
     53      27.9668      0.00000
     54      28.4644      0.00000
     55      28.4644      0.00000
     56      28.7498      0.00000
     57      28.8030      0.00000
     58      28.8030      0.00000
     59      28.9048      0.00000
     60      30.2508      0.00000
     61      30.2508      0.00000
     62      32.6129      0.00000
     63      32.6129      0.00000
     64      33.5885      0.00000
     65      33.5885      0.00000
     66      37.4051      0.00000
     67      37.4051      0.00000
     68      37.7648      0.00000
     69      38.1567      0.00000
     70      38.1567      0.00000
     71      38.7512      0.00000
     72      38.7512      0.00000
     73      38.7920      0.00000
     74      39.1864      0.00000
     75      39.8483      0.00000
     76      40.0088      0.00000
     77      40.0088      0.00000
     78      40.9755      0.00000
     79      40.9755      0.00000
     80      41.8548      0.00000
     81      41.8548      0.00000
     82      42.7000      0.00000
     83      42.7000      0.00000
     84      43.9196      0.00000
     85      44.8888      0.00000
     86      44.8888      0.00000
     87      45.6911      0.00000
     88      45.6911      0.00000
     89      46.6882      0.00000
     90      46.6882      0.00000
     91      48.5386      0.00000
     92      48.5386      0.00000
     93      49.6875      0.00000
     94      49.6875      0.00000
     95      50.3731      0.00000
     96      50.3731      0.00000

 k-point     4 :       0.3750    0.0000    0.0000
  band No.  band energies     occupation
      1     -36.4348      2.00000
      2     -36.4348      2.00000
      3     -36.4283      2.00000
      4     -36.4188      2.00000
      5     -36.4188      2.00000
      6     -36.4077      2.00000
      7     -36.4077      2.00000
      8     -36.4017      2.00000
      9     -36.3975      2.00000
     10     -36.3975      2.00000
     11     -36.3871      2.00000
     12     -36.3871      2.00000
     13     -14.0378      2.00000
     14     -13.4619      2.00000
     15     -12.9428      2.00000
     16     -12.9428      2.00000
     17      -0.6550      2.00000
     18      -0.6550      2.00000
     19      -0.5196      2.00000
     20       0.3265      2.00000
     21       0.3265      2.00000
     22       0.8479      2.00000
     23       1.0108      2.00000
     24       1.0108      2.00000
     25       1.7319      2.00000
     26       1.7319      2.00000
     27       2.2316      2.00000
     28       2.2316      2.00000
     29       9.5408      0.00000
     30      11.5637      0.00000
     31      12.9402      0.00000
     32      13.4556      0.00000
     33      13.4556      0.00000
     34      14.2147      0.00000
     35      14.2147      0.00000
     36      14.8690      0.00000
     37      14.8690      0.00000
     38      14.9350      0.00000
     39      16.7467      0.00000
     40      18.6269      0.00000
     41      18.6269      0.00000
     42      19.4282      0.00000
     43      19.4282      0.00000
     44      19.6295      0.00000
     45      20.5699      0.00000
     46      20.5699      0.00000
     47      23.0444      0.00000
     48      23.0444      0.00000
     49      25.1194      0.00000
     50      26.4014      0.00000
     51      26.4014      0.00000
     52      26.8941      0.00000
     53      28.1052      0.00000
     54      28.4638      0.00000
     55      28.4638      0.00000
     56      28.7182      0.00000
     57      28.7182      0.00000
     58      29.6259      0.00000
     59      29.8958      0.00000
     60      31.0271      0.00000
     61      31.0271      0.00000
     62      31.3038      0.00000
     63      31.3038      0.00000
     64      33.9287      0.00000
     65      33.9287      0.00000
     66      34.2696      0.00000
     67      37.2929      0.00000
     68      37.2929      0.00000
     69      37.4703      0.00000
     70      37.4703      0.00000
     71      38.0317      0.00000
     72      38.6888      0.00000
     73      39.1919      0.00000
     74      39.1919      0.00000
     75      39.3185      0.00000
     76      39.3185      0.00000
     77      40.8401      0.00000
     78      40.8401      0.00000
     79      41.5598      0.00000
     80      42.0773      0.00000
     81      42.0773      0.00000
     82      42.0986      0.00000
     83      42.0986      0.00000
     84      44.6927      0.00000
     85      44.6927      0.00000
     86      46.0886      0.00000
     87      47.4898      0.00000
     88      47.7267      0.00000
     89      47.7267      0.00000
     90      48.5743      0.00000
     91      48.5743      0.00000
     92      48.7473      0.00000
     93      48.7473      0.00000
     94      49.2486      0.00000
     95      49.2486      0.00000
     96      50.9540      0.00000

 k-point     5 :       0.5000    0.0000    0.0000
  band No.  band energies     occupation
      1     -36.4271      2.00000
      2     -36.4271      2.00000
      3     -36.4271      2.00000
      4     -36.4271      2.00000
      5     -36.4152      2.00000
      6     -36.4152      2.00000
      7     -36.4080      2.00000
      8     -36.4080      2.00000
      9     -36.3923      2.00000
     10     -36.3923      2.00000
     11     -36.3923      2.00000
     12     -36.3923      2.00000
     13     -13.7505      2.00000
     14     -13.7505      2.00000
     15     -12.9335      2.00000
     16     -12.9335      2.00000
     17      -0.1960      2.00000
     18      -0.1960      2.00000
     19      -0.1960      2.00000
     20      -0.1960      2.00000
     21       0.0937      2.00000
     22       0.0937      2.00000
     23       0.9516      2.00000
     24       0.9516      2.00000
     25       1.9730      2.00000
     26       1.9730      2.00000
     27       1.9730      2.00000
     28       1.9730      2.00000
     29      10.6123      0.00000
     30      10.6123      0.00000
     31      13.8208      0.00000
     32      13.8208      0.00000
     33      14.2389      0.00000
     34      14.2389      0.00000
     35      14.2389      0.00000
     36      14.2389      0.00000
     37      14.6851      0.00000
     38      14.6851      0.00000
     39      18.0244      0.00000
     40      18.0244      0.00000
     41      18.0320      0.00000
     42      18.0320      0.00000
     43      20.0104      0.00000
     44      20.0104      0.00000
     45      20.0104      0.00000
     46      20.0104      0.00000
     47      24.4610      0.00000
     48      24.4610      0.00000
     49      24.4610      0.00000
     50      24.4610      0.00000
     51      25.9178      0.00000
     52      25.9178      0.00000
     53      28.7993      0.00000
     54      28.7993      0.00000
     55      29.7773      0.00000
     56      29.7773      0.00000
     57      29.7773      0.00000
     58      29.7773      0.00000
     59      30.1562      0.00000
     60      30.1562      0.00000
     61      31.0445      0.00000
     62      31.0445      0.00000
     63      31.3619      0.00000
     64      31.3619      0.00000
     65      34.1126      0.00000
     66      34.1126      0.00000
     67      36.9200      0.00000
     68      36.9200      0.00000
     69      37.9488      0.00000
     70      37.9488      0.00000
     71      38.2433      0.00000
     72      38.2433      0.00000
     73      38.2433      0.00000
     74      38.2433      0.00000
     75      39.9936      0.00000
     76      39.9936      0.00000
     77      39.9936      0.00000
     78      39.9936      0.00000
     79      41.8712      0.00000
     80      41.8712      0.00000
     81      43.3538      0.00000
     82      43.3538      0.00000
     83      43.3538      0.00000
     84      43.3538      0.00000
     85      44.3556      0.00000
     86      44.3556      0.00000
     87      48.1222      0.00000
     88      48.1222      0.00000
     89      48.4356      0.00000
     90      48.4356      0.00000
     91      48.4356      0.00000
     92      48.4356      0.00000
     93      48.6813      0.00000
     94      48.6813      0.00000
     95      52.4566      0.00000
     96      52.4566      0.00000

 k-point     6 :       0.1250    0.1250    0.0000
  band No.  band energies     occupation
      1     -36.4448      2.00000
      2     -36.4445      2.00000
      3     -36.4445      2.00000
      4     -36.4111      2.00000
      5     -36.4063      2.00000
      6     -36.4063      2.00000
      7     -36.4049      2.00000
      8     -36.4049      2.00000
      9     -36.4040      2.00000
     10     -36.3860      2.00000
     11     -36.3805      2.00000
     12     -36.3787      2.00000
     13     -14.3851      2.00000
     14     -13.0419      2.00000
     15     -13.0419      2.00000
     16     -12.9804      2.00000
     17      -1.1570      2.00000
     18      -1.1570      2.00000
     19      -1.1521      2.00000
     20       0.9293      2.00000
     21       1.2709      2.00000
     22       1.2709      2.00000
     23       1.3631      2.00000
     24       1.3631      2.00000
     25       1.4263      2.00000
     26       2.0519      2.00000
     27       2.5687      2.00000
     28       2.6484      2.00000
     29       7.9381      0.00000
     30      12.1516      0.00000
     31      12.1516      0.00000
     32      12.1617      0.00000
     33      12.6984      0.00000
     34      12.6984      0.00000
     35      13.0324      0.00000
     36      15.4792      0.00000
     37      15.5794      0.00000
     38      15.5794      0.00000
     39      17.1192      0.00000
     40      18.6347      0.00000
     41      18.6708      0.00000
     42      20.9045      0.00000
     43      20.9045      0.00000
     44      21.0759      0.00000
     45      21.1974      0.00000
     46      21.5109      0.00000
     47      21.5109      0.00000
     48      22.8953      0.00000
     49      23.6893      0.00000
     50      24.0295      0.00000
     51      27.1844      0.00000
     52      27.1978      0.00000
     53      28.2274      0.00000
     54      28.2274      0.00000
     55      28.2405      0.00000
     56      28.3601      0.00000
     57      29.0369      0.00000
     58      29.0369      0.00000
     59      29.7484      0.00000
     60      30.8236      0.00000
     61      31.8272      0.00000
     62      31.8272      0.00000
     63      32.4976      0.00000
     64      33.2153      0.00000
     65      33.2153      0.00000
     66      37.6020      0.00000
     67      37.6020      0.00000
     68      37.9015      0.00000
     69      37.9015      0.00000
     70      38.8097      0.00000
     71      38.8841      0.00000
     72      39.1236      0.00000
     73      39.4922      0.00000
     74      39.4922      0.00000
     75      40.3841      0.00000
     76      40.6602      0.00000
     77      40.7792      0.00000
     78      41.7704      0.00000
     79      41.7882      0.00000
     80      41.7882      0.00000
     81      42.3026      0.00000
     82      42.3026      0.00000
     83      42.5772      0.00000
     84      42.6574      0.00000
     85      44.1709      0.00000
     86      44.5586      0.00000
     87      44.5586      0.00000
     88      44.6884      0.00000
     89      44.6884      0.00000
     90      45.4401      0.00000
     91      47.3956      0.00000
     92      49.5099      0.00000
     93      49.5099      0.00000
     94      50.3566      0.00000
     95      50.4846      0.00000
     96      51.2485      0.00000

 k-point     7 :       0.2500    0.1250    0.0000
  band No.  band energies     occupation
      1     -36.4411      2.00000
      2     -36.4402      2.00000
      3     -36.4388      2.00000
      4     -36.4169      2.00000
      5     -36.4108      2.00000
      6     -36.4049      2.00000
      7     -36.4033      2.00000
      8     -36.4030      2.00000
      9     -36.4012      2.00000
     10     -36.3949      2.00000
     11     -36.3835      2.00000
     12     -36.3805      2.00000
     13     -14.2280      2.00000
     14     -13.1982      2.00000
     15     -13.0122      2.00000
     16     -12.9648      2.00000
     17      -0.9856      2.00000
     18      -0.9415      2.00000
     19      -0.9348      2.00000
     20       0.4955      2.00000
     21       0.8883      2.00000
     22       1.2449      2.00000
     23       1.3944      2.00000
     24       1.3951      2.00000
     25       1.4019      2.00000
     26       1.5154      2.00000
     27       2.3906      2.00000
     28       2.5247      2.00000
     29       8.6988      0.00000
     30      12.3906      0.00000
     31      12.5095      0.00000
     32      12.6010      0.00000
     33      12.7491      0.00000
     34      13.2810      0.00000
     35      13.7039      0.00000
     36      15.2517      0.00000
     37      15.3472      0.00000
     38      15.8824      0.00000
     39      16.0503      0.00000
     40      18.8643      0.00000
     41      19.0443      0.00000
     42      19.8934      0.00000
     43      20.0477      0.00000
     44      20.7132      0.00000
     45      21.1999      0.00000
     46      21.5309      0.00000
     47      21.6800      0.00000
     48      22.0185      0.00000
     49      23.9588      0.00000
     50      25.5927      0.00000
     51      27.7236      0.00000
     52      27.7957      0.00000
     53      27.8234      0.00000
     54      28.0523      0.00000
     55      28.6086      0.00000
     56      28.8916      0.00000
     57      29.0293      0.00000
     58      29.2783      0.00000
     59      29.4282      0.00000
     60      30.3316      0.00000
     61      30.5864      0.00000
     62      32.0176      0.00000
     63      32.3941      0.00000
     64      32.4740      0.00000
     65      33.3280      0.00000
     66      36.5162      0.00000
     67      36.5540      0.00000
     68      36.9820      0.00000
     69      37.7400      0.00000
     70      38.0796      0.00000
     71      38.0914      0.00000
     72      39.1485      0.00000
     73      39.5494      0.00000
     74      39.7869      0.00000
     75      39.9386      0.00000
     76      40.4185      0.00000
     77      40.5204      0.00000
     78      40.5653      0.00000
     79      41.4219      0.00000
     80      41.9263      0.00000
     81      43.1892      0.00000
     82      43.9595      0.00000
     83      43.9602      0.00000
     84      44.1059      0.00000
     85      44.1126      0.00000
     86      44.7732      0.00000
     87      44.9843      0.00000
     88      45.0438      0.00000
     89      46.1995      0.00000
     90      46.3776      0.00000
     91      48.6370      0.00000
     92      48.6435      0.00000
     93      49.1006      0.00000
     94      49.4504      0.00000
     95      50.1209      0.00000
     96      50.2354      0.00000

 k-point     8 :       0.3750    0.1250    0.0000
  band No.  band energies     occupation
      1     -36.4361      2.00000
      2     -36.4333      2.00000
      3     -36.4298      2.00000
      4     -36.4232      2.00000
      5     -36.4177      2.00000
      6     -36.4063      2.00000
      7     -36.4048      2.00000
      8     -36.4034      2.00000
      9     -36.3988      2.00000
     10     -36.3960      2.00000
     11     -36.3882      2.00000
     12     -36.3845      2.00000
     13     -13.9921      2.00000
     14     -13.4337      2.00000
     15     -12.9786      2.00000
     16     -12.9528      2.00000
     17      -0.7155      2.00000
     18      -0.5862      2.00000
     19      -0.5624      2.00000
     20       0.0465      2.00000
     21       0.3847      2.00000
     22       0.6587      2.00000
     23       1.1524      2.00000
     24       1.2651      2.00000
     25       1.6066      2.00000
     26       1.7432      2.00000
     27       2.1392      2.00000
     28       2.2924      2.00000
     29       9.6835      0.00000
     30      11.6858      0.00000
     31      13.1004      0.00000
     32      13.2810      0.00000
     33      13.5193      0.00000
     34      13.9510      0.00000
     35      14.4396      0.00000
     36      14.8502      0.00000
     37      14.9177      0.00000
     38      14.9996      0.00000
     39      16.7010      0.00000
     40      18.8619      0.00000
     41      18.9337      0.00000
     42      18.9406      0.00000
     43      19.5792      0.00000
     44      20.1566      0.00000
     45      20.3968      0.00000
     46      20.7344      0.00000
     47      22.6477      0.00000
[...]
     89      48.5769      0.00000
     90      48.5769      0.00000
     91      48.5769      0.00000
     92      48.8690      0.00000
     93      51.2923      0.00000
     94      51.2923      0.00000
     95      51.2923      0.00000
     96      53.2777      0.00000

 k-point    33 :       0.5000    0.3750    0.3750
  band No.  band energies     occupation
      1     -36.4566      2.00000
      2     -36.4566      2.00000
      3     -36.4537      2.00000
      4     -36.4537      2.00000
      5     -36.3926      2.00000
      6     -36.3926      2.00000
      7     -36.3885      2.00000
      8     -36.3885      2.00000
      9     -36.3875      2.00000
     10     -36.3875      2.00000
     11     -36.3873      2.00000
     12     -36.3873      2.00000
     13     -13.2945      2.00000
     14     -13.2945      2.00000
     15     -13.1704      2.00000
     16     -13.1704      2.00000
     17      -1.6938      2.00000
     18      -1.6938      2.00000
     19      -1.5648      2.00000
     20      -1.5648      2.00000
     21       1.6482      2.00000
     22       1.6482      2.00000
     23       1.9797      2.00000
     24       1.9797      2.00000
     25       1.9829      2.00000
     26       1.9829      2.00000
     27       2.0434      2.00000
     28       2.0434      2.00000
     29      10.6448      0.00000
     30      10.6448      0.00000
     31      11.0360      0.00000
     32      11.0360      0.00000
     33      14.9628      0.00000
     34      14.9628      0.00000
     35      15.0234      0.00000
     36      15.0234      0.00000
     37      17.6759      0.00000
     38      17.6759      0.00000
     39      18.4850      0.00000
     40      18.4850      0.00000
     41      19.0452      0.00000
     42      19.0452      0.00000
     43      19.1381      0.00000
     44      19.1381      0.00000
     45      23.7253      0.00000
     46      23.7253      0.00000
     47      24.1022      0.00000
     48      24.1022      0.00000
     49      24.2312      0.00000
     50      24.2312      0.00000
     51      24.5220      0.00000
     52      24.5220      0.00000
     53      24.9730      0.00000
     54      24.9730      0.00000
     55      25.5410      0.00000
     56      25.5410      0.00000
     57      31.5563      0.00000
     58      31.5563      0.00000
     59      32.0967      0.00000
     60      32.0967      0.00000
     61      32.6068      0.00000
     62      32.6068      0.00000
     63      32.7064      0.00000
     64      32.7064      0.00000
     65      32.7388      0.00000
     66      32.7388      0.00000
     67      33.7401      0.00000
     68      33.7401      0.00000
     69      34.6346      0.00000
     70      34.6346      0.00000
     71      36.0099      0.00000
     72      36.0099      0.00000
     73      36.0544      0.00000
     74      36.0544      0.00000
     75      36.9543      0.00000
     76      36.9543      0.00000
     77      41.3736      0.00000
     78      41.3736      0.00000
     79      45.3384      0.00000
     80      45.3384      0.00000
     81      46.8114      0.00000
     82      46.8114      0.00000
     83      47.3904      0.00000
     84      47.3904      0.00000
     85      47.5545      0.00000
     86      47.5545      0.00000
     87      47.7402      0.00000
     88      47.7402      0.00000
     89      48.9903      0.00000
     90      48.9903      0.00000
     91      49.8139      0.00000
     92      49.8140      0.00000
     93      51.7940      0.00000
     94      51.7940      0.00000
     95      52.4446      0.00000
     96      52.4450      0.00000

 k-point    34 :       0.5000    0.5000    0.3750
  band No.  band energies     occupation
      1     -36.4577      2.00000
      2     -36.4577      2.00000
      3     -36.4577      2.00000
      4     -36.4577      2.00000
      5     -36.3891      2.00000
      6     -36.3891      2.00000
      7     -36.3891      2.00000
      8     -36.3891      2.00000
      9     -36.3866      2.00000
     10     -36.3866      2.00000
     11     -36.3866      2.00000
     12     -36.3866      2.00000
     13     -13.2209      2.00000
     14     -13.2209      2.00000
     15     -13.2209      2.00000
     16     -13.2209      2.00000
     17      -1.7409      2.00000
     18      -1.7409      2.00000
     19      -1.7409      2.00000
     20      -1.7409      2.00000
     21       1.9053      2.00000
     22       1.9053      2.00000
     23       1.9053      2.00000
     24       1.9053      2.00000
     25       2.0558      2.00000
     26       2.0558      2.00000
     27       2.0558      2.00000
     28       2.0558      2.00000
     29      10.6804      0.00000
     30      10.6804      0.00000
     31      10.6804      0.00000
     32      10.6804      0.00000
     33      15.0589      0.00000
     34      15.0589      0.00000
     35      15.0589      0.00000
     36      15.0589      0.00000
     37      18.4042      0.00000
     38      18.4042      0.00000
     39      18.4042      0.00000
     40      18.4042      0.00000
     41      18.9933      0.00000
     42      18.9933      0.00000
     43      18.9933      0.00000
     44      18.9933      0.00000
     45      23.9819      0.00000
     46      23.9819      0.00000
     47      23.9819      0.00000
     48      23.9819      0.00000
     49      24.6721      0.00000
     50      24.6721      0.00000
     51      24.6721      0.00000
     52      24.6721      0.00000
     53      24.7817      0.00000
     54      24.7817      0.00000
     55      24.7817      0.00000
     56      24.7817      0.00000
     57      31.4806      0.00000
     58      31.4806      0.00000
     59      31.4806      0.00000
     60      31.4806      0.00000
     61      32.9176      0.00000
     62      32.9176      0.00000
     63      32.9176      0.00000
     64      32.9176      0.00000
     65      33.4213      0.00000
     66      33.4213      0.00000
     67      33.4213      0.00000
     68      33.4213      0.00000
     69      34.8343      0.00000
     70      34.8343      0.00000
     71      34.8343      0.00000
     72      34.8343      0.00000
     73      36.1693      0.00000
     74      36.1693      0.00000
     75      36.1693      0.00000
     76      36.1693      0.00000
     77      43.4826      0.00000
     78      43.4826      0.00000
     79      43.4826      0.00000
     80      43.4826      0.00000
     81      47.6110      0.00000
     82      47.6110      0.00000
     83      47.6111      0.00000
     84      47.6111      0.00000
     85      48.3898      0.00000
     86      48.3898      0.00000
     87      48.3898      0.00000
     88      48.3898      0.00000
     89      49.1028      0.00000
     90      49.1028      0.00000
     91      49.1028      0.00000
     92      49.1028      0.00000
     93      52.9744      0.00000
     94      52.9846      0.00000
     95      52.9902      0.00000
     96      52.9909      0.00000

 k-point    35 :       0.5000    0.5000    0.5000
  band No.  band energies     occupation
      1     -36.4603      2.00000
      2     -36.4603      2.00000
      3     -36.4603      2.00000
      4     -36.4603      2.00000
      5     -36.3867      2.00000
      6     -36.3867      2.00000
      7     -36.3867      2.00000
      8     -36.3867      2.00000
      9     -36.3867      2.00000
     10     -36.3867      2.00000
     11     -36.3867      2.00000
     12     -36.3867      2.00000
     13     -13.2087      2.00000
     14     -13.2087      2.00000
     15     -13.2087      2.00000
     16     -13.2087      2.00000
     17      -1.8560      2.00000
     18      -1.8560      2.00000
     19      -1.8560      2.00000
     20      -1.8560      2.00000
     21       2.0557      2.00000
     22       2.0557      2.00000
     23       2.0557      2.00000
     24       2.0557      2.00000
     25       2.0557      2.00000
     26       2.0557      2.00000
     27       2.0557      2.00000
     28       2.0557      2.00000
     29      10.4985      0.00000
     30      10.4985      0.00000
     31      10.4985      0.00000
     32      10.4985      0.00000
     33      15.1261      0.00000
     34      15.1261      0.00000
     35      15.1261      0.00000
     36      15.1261      0.00000
     37      18.8735      0.00000
     38      18.8735      0.00000
     39      18.8735      0.00000
     40      18.8735      0.00000
     41      18.8735      0.00000
     42      18.8735      0.00000
     43      18.8735      0.00000
     44      18.8735      0.00000
     45      23.3535      0.00000
     46      23.3535      0.00000
     47      23.3535      0.00000
     48      23.3535      0.00000
     49      25.0095      0.00000
     50      25.0095      0.00000
     51      25.0095      0.00000
     52      25.0095      0.00000
     53      25.0095      0.00000
     54      25.0095      0.00000
     55      25.0095      0.00000
     56      25.0095      0.00000
     57      31.0052      0.00000
     58      31.0052      0.00000
     59      31.0052      0.00000
     60      31.0052      0.00000
     61      33.3593      0.00000
     62      33.3593      0.00000
     63      33.3593      0.00000
     64      33.3593      0.00000
     65      33.3593      0.00000
     66      33.3593      0.00000
     67      33.3593      0.00000
     68      33.3593      0.00000
     69      35.0934      0.00000
     70      35.0934      0.00000
     71      35.0934      0.00000
     72      35.0934      0.00000
     73      35.0934      0.00000
     74      35.0934      0.00000
     75      35.0934      0.00000
     76      35.0934      0.00000
     77      44.8648      0.00000
     78      44.8648      0.00000
     79      44.8648      0.00000
     80      44.8648      0.00000
     81      46.5810      0.00000
     82      46.5810      0.00000
     83      46.5810      0.00000
     84      46.5810      0.00000
     85      49.2794      0.00000
     86      49.2794      0.00000
     87      49.2794      0.00000
     88      49.2794      0.00000
     89      49.2794      0.00000
     90      49.2794      0.00000
     91      49.2794      0.00000
     92      49.2794      0.00000
     93      52.9734      0.00000
     94      52.9752      0.00000
     95      52.9761      0.00000
     96      52.9764      0.00000


--------------------------------------------------------------------------------------------------------


 soft charge-density along one line, spin component           1
         0         1         2         3         4         5         6         7         8         9
 total charge-density along one line

 pseudopotential strength for first ion, spin component:           1
-48.225  -0.000   0.000   5.627   0.000  -0.000   0.000  -0.000
 -0.000 -48.225  -0.000   0.000   5.627   0.000   0.000  -0.000
  0.000  -0.000 -48.225  -0.000   0.000   5.627   0.000  -0.000
  5.627   0.000  -0.000   4.838   0.000   0.000   0.000  -0.000
  0.000   5.627   0.000   0.000   4.838   0.000   0.000  -0.000
 -0.000   0.000   5.627   0.000   0.000   4.838   0.000  -0.000
  0.000   0.000   0.000   0.000   0.000   0.000   2.974 -10.852
 -0.000  -0.000  -0.000  -0.000  -0.000  -0.000 -10.852  45.072
 -0.000   0.000  -0.000   0.000  -0.000   0.000  -0.000   0.000
 -0.000  -0.000   0.000   0.000   0.000  -0.000   0.000  -0.000
  0.000  -0.000   0.000  -0.000   0.000  -0.000   0.000  -0.000
  0.000  -0.000  -0.000  -0.000   0.000   0.000   0.000  -0.000
  0.000  -0.000  -0.000  -0.000   0.000   0.000  -0.000   0.000
 total augmentation occupancy for first ion, spin component:           1
  2.002  -0.000   0.000  -0.003  -0.000   0.000   0.000   0.000   0.000   0.000  -0.000   0.000  -0.000
  0.000   2.002  -0.000   0.000  -0.003   0.000  -0.000   0.000   0.000   0.000  -0.000   0.000   0.000
 -0.000   0.000   2.002   0.000  -0.000  -0.003  -0.000  -0.000   0.000   0.000  -0.000   0.000   0.000
 -0.003   0.000  -0.000   0.075   0.000  -0.000   0.000   0.000   0.000   0.000   0.000   0.000   0.000
 -0.000  -0.003  -0.000   0.000   0.075   0.000   0.000  -0.000   0.000   0.000  -0.000   0.000  -0.000
  0.000   0.000  -0.003   0.000  -0.000   0.075   0.000  -0.000  -0.000   0.000  -0.000  -0.000   0.000
  0.000   0.000   0.000   0.000   0.000   0.000   0.852   0.015   0.000  -0.000   0.000   0.000   0.000
  0.000   0.000  -0.000   0.000   0.000   0.000   0.015   0.000  -0.000  -0.000   0.000   0.000   0.000
  0.000   0.000   0.000   0.000   0.000  -0.000  -0.000  -0.000   0.013  -0.000   0.000  -0.000  -0.000
  0.000   0.000   0.000  -0.000   0.000   0.000  -0.000  -0.000   0.000   0.013   0.000  -0.000  -0.000
 -0.000  -0.000   0.000   0.000   0.000   0.000  -0.000   0.000   0.000   0.000   0.050   0.000  -0.000
  0.000   0.000   0.000   0.000   0.000   0.000  -0.000   0.000   0.000   0.000   0.000   0.013   0.000
  0.000   0.000   0.000   0.000   0.000   0.000  -0.000   0.000   0.000   0.000  -0.000  -0.000   0.050


------------------------ aborting loop because EDIFF is reached ----------------------------------------


    FORLOC:  cpu time      0.0003: real time      0.0003
    FORNL :  cpu time      0.0071: real time      0.0072
    STRESS:  cpu time      0.0748: real time      0.0749
    FORCOR:  cpu time      0.0072: real time      0.0076
    OFIELD:  cpu time      0.0000: real time      0.0000

  DFT-D2 method for vdW energy calculation
  -------------------------------------------------------------------

  Parameters of vdW forcefield:
         C6(Jnm^6/mol)     R0(A)
   -----------------------------
   Mg       0.630          1.243
   O        0.700          1.342

  vdW correction parametrized for the method pbe

  IVDW =   1
  VDW_RADIUS =    50.000 A
  VDW_S6 =     0.750
  VDW_SR =     1.000
  VDW_D =    20.000
  LVDW_EWALD = F

  Number of pair interactions contributing to vdW energy:  248432
  Edisp (eV):   -0.56848
    FORVDW:  cpu time      0.0276: real time      0.0276

  FORCE on cell =-STRESS in cart. coord.  units (eV):
  Direction    XX          YY          ZZ          XY          YZ          ZX
  --------------------------------------------------------------------------------------
  Alpha Z   273.92283   273.92283   273.92283
  Ewald   -1276.86380 -1276.86380 -1276.86380    -0.00000    -0.00000     0.00000
  Hartree   410.56735   410.56735   410.56735    -0.00000    -0.00000    -0.00000
  E(xc)    -308.06251  -308.06251  -308.06251     0.00000     0.00000    -0.00000
  Local     205.34630   205.34630   205.34630    -0.00000     0.00000     0.00000
  n-local  -351.65753  -353.16645  -352.98942     0.18440     0.16886     0.10349
  augment   130.56104   130.56104   130.56104     0.00000     0.00000    -0.00000
  Kinetic   911.10750   919.96304   922.77303    -2.99599    -2.92275    -1.79998
  Fock        0.00000     0.00000     0.00000     0.00000     0.00000     0.00000
  vdW        -0.81381    -0.81381    -0.81381     0.00000    -0.00000    -0.00000
  -------------------------------------------------------------------------------------
  Total       0.00080     0.00080     0.00080     0.00000     0.00000    -0.00000
  in kB       0.01680     0.01680     0.01680     0.00000     0.00000    -0.00000
  external pressure =        0.02 kB  Pullay stress =        0.00 kB


 VOLUME and BASIS-vectors are now :
 -----------------------------------------------------------------------------
  energy-cutoff  :      600.00
  volume of cell :       75.88
      direct lattice vectors                 reciprocal lattice vectors
     4.233571315  0.000000000  0.000000000     0.236207194  0.000000000  0.000000000
    -0.000000000  4.233571315  0.000000000    -0.000000000  0.236207194  0.000000000
    -0.000000000 -0.000000000  4.233571315     0.000000000 -0.000000000  0.236207194

  length of vectors
     4.233571315  4.233571315  4.233571315     0.236207194  0.236207194  0.236207194


 FORCES acting on ions:
    Electron-Ion                     Ewald-Force                    Non-Local-Force
 -----------------------------------------------------------------------------------------------
   -.298E-13 -.316E-13 -.265E-13   0.399E-14 -.302E-14 0.281E-14   0.000E+00 -.414E-24 0.529E-25
   -.296E-13 0.388E-12 0.388E-12   0.397E-14 0.161E-14 0.105E-13   -.207E-24 0.000E+00 0.419E-25
   0.382E-12 -.334E-13 0.292E-11   0.309E-14 -.430E-14 0.105E-13   0.000E+00 -.743E-25 0.185E-23
   0.383E-12 0.952E-12 -.343E-12   0.307E-14 0.337E-15 0.289E-14   -.207E-24 0.775E-25 -.105E-23
   0.178E-12 -.236E-13 -.156E-11   -.554E-14 -.909E-16 -.105E-13   0.000E+00 0.000E+00 -.764E-25
   0.176E-12 0.125E-12 0.731E-12   -.542E-14 0.419E-14 -.391E-14   0.000E+00 0.000E+00 0.116E-25
   -.215E-13 -.296E-13 0.163E-12   -.191E-14 -.147E-14 -.391E-14   -.775E-25 -.103E-24 0.101E-24
   -.217E-13 0.168E-12 -.187E-13   -.180E-14 0.281E-14 -.878E-14   -.517E-25 0.000E+00 -.366E-25
 -----------------------------------------------------------------------------------------------
   0.103E-11 0.154E-11 0.231E-11   -.545E-15 0.805E-16 -.423E-15   -.543E-24 -.514E-24 0.903E-24


 POSITION                                       TOTAL-FORCE (eV/Angst)
 -----------------------------------------------------------------------------------
      0.00000      0.00000      0.00000        -0.000000     -0.000000     -0.000000
      0.00000      2.11679      2.11679        -0.000000     -0.000000     -0.000000
      2.11679      0.00000      2.11679         0.000000     -0.000000     -0.000000
      2.11679      2.11679      0.00000         0.000000      0.000000      0.000000
      2.11679      0.00000      0.00000        -0.000000      0.000000     -0.000000
      2.11679      2.11679      2.11679        -0.000000      0.000000      0.000000
      0.00000      0.00000      2.11679        -0.000000      0.000000      0.000000
      0.00000      2.11679      0.00000        -0.000000     -0.000000     -0.000000
 -----------------------------------------------------------------------------------
    total drift:                                0.000000      0.000000      0.000000


--------------------------------------------------------------------------------------------------------



  FREE ENERGIE OF THE ION-ELECTRON SYSTEM (eV)
  ---------------------------------------------------
  free  energy   TOTEN  =       -48.04639982 eV

  energy  without entropy=      -48.04639982  energy(sigma->0) =      -48.04639982



--------------------------------------------------------------------------------------------------------


    POTLOK:  cpu time      0.1352: real time      0.1352


--------------------------------------------------------------------------------------------------------




--------------------------------------------------------------------------------------------------------



 reached required accuracy - stopping structural energy minimisation
     LOOP+:  cpu time     56.0192: real time     56.1799
    4ORBIT:  cpu time      0.0000: real time      0.0000

 total amount of memory used by VASP MPI-rank0    37050. kBytes
=======================================================================

   base      :      30000. kBytes
   nonl-proj :       4978. kBytes
   fftplans  :        364. kBytes
   grid      :        402. kBytes
   one-center:         16. kBytes
   wavefun   :       1290. kBytes



 General timing and accounting informations for this job:
 ========================================================

                  Total CPU time used (sec):       66.462
                            User time (sec):       65.342
                          System time (sec):        1.120
                         Elapsed time (sec):       71.087

                   Maximum memory used (kb):      123880.
                   Average memory used (kb):          N/A

                          Minor page faults:        30822
                          Major page faults:            0
                 Voluntary context switches:         9338
