 vasp.6.3.0 20Jan22 (build Mar 11 2022 13:48:16) complex

 executed on             LinuxIFC date 2023.12.26  17:19:29
 running on  304 total cores
 distrk:  each k-point on  304 cores,    1 groups
 distr:  one band on NCORE=   2 cores,  152 groups


--------------------------------------------------------------------------------------------------------


 INCAR:
   SYSTEM = MgO-rocksalt
   ISMEAR = 0
   SIGMA = 0.05
   EDIFF = 1E-5
   ALGO = ALL
   ISTART = 0
   IBRION = -1
   NSW = 0
   ISYM = 2
   ISIF = 2
   DIPOL = 0.5 0.5 0.5
   IDIPOL = 3
   LDIPOL = .TRUE.
   GGA = RE
   IVDW = 13
   VDW_S8 = 1.7468
   VDW_A1 = 0.5363
   VDW_A2 = 3.0726
   ENCUT = 600
   PREC = Accurate
   LASPH = .TRUE.
   LREAL = .FALSE.
   ISPIN = 1
   NELM = 200
   NELMIN = 8
   NCORE = 2
   KPAR = 1
   LWAVE = .FALSE.
   LCHARG = .FALSE.

 POTCAR:    PAW_PBE C 08Apr2002
 POTCAR:    PAW_PBE O 08Apr2002
 -----------------------------------------------------------------------------
|                                                                             |
|           W    W    AA    RRRRR   N    N  II  N    N   GGGG   !!!           |
|           W    W   A  A   R    R  NN   N  II  NN   N  G    G  !!!           |
|           W    W  A    A  R    R  N N  N  II  N N  N  G       !!!           |
|           W WW W  AAAAAA  RRRRR   N  N N  II  N  N N  G  GGG   !            |
|           WW  WW  A    A  R   R   N   NN  II  N   NN  G    G                |
|           W    W  A    A  R    R  N    N  II  N    N   GGGG   !!!           |
|                                                                             |
|     For optimal performance we recommend to set                             |
|       NCORE = 2 up to number-of-cores-per-socket                            |
|     NCORE specifies how many cores store one orbital (NPAR=cpu/NCORE).      |
|     This setting can greatly improve the performance of VASP for DFT.       |
|     The default, NCORE=1 might be grossly inefficient on modern             |
|     multi-core architectures or massively parallel machines. Do your        |
|     own testing! More info at https://www.vasp.at/wiki/index.php/NCORE      |
|     Unfortunately you need to use the default for GW and RPA                |
|     calculations (for HF NCORE is supported but not extensively tested      |
|     yet).                                                                   |
|                                                                             |
 -----------------------------------------------------------------------------

 POTCAR:    PAW_PBE C 08Apr2002
   SHA256 =  253f7b50bb8d59471dbedb8285d89021f4a42ed1a2c5d38a03a736e69125dd95 C/POTCAR
   COPYR  = (c) Copyright 08Apr2002 Georg Kresse
   COPYR  = This file is part of the software VASP. Any use, copying, and all other rights are regul
   COPYR  = If you do not have a valid VASP license, you may not use, copy or distribute this file.
   VRHFIN =C: s2p2
   LEXCH  = PE
   EATOM  =   147.1560 eV,   10.8157 Ry

   TITEL  = PAW_PBE C 08Apr2002
   LULTRA =        F    use ultrasoft PP ?
   IUNSCR =        1    unscreen: 0-lin 1-nonlin 2-no
   RPACOR =    1.200    partial core radius
   POMASS =   12.011; ZVAL   =    4.000    mass and valenz
   RCORE  =    1.500    outmost cutoff radius
   RWIGS  =    1.630; RWIGS  =    0.863    wigner-seitz radius (au A)
   ENMAX  =  400.000; ENMIN  =  300.000 eV
   ICORE  =        2    local potential
   LCOR   =        T    correct aug charges
   LPAW   =        T    paw PP
   EAUG   =  644.873
   DEXC   =    0.000
   RMAX   =    1.529    core radius for proj-oper
   RAUG   =    1.300    factor for augmentation sphere
   RDEP   =    1.501    radius for radial grids
   RDEPT  =    1.300    core radius for aug-charge

   Atomic configuration
    4 entries
     n  l   j            E        occ.
     1  0  0.50      -273.3789   2.0000
     2  0  0.50       -13.7508   2.0000
     2  1  0.50        -5.2854   2.0000
     3  2  1.50        -5.4423   0.0000
   Description
     l       E           TYP  RCUT    TYP  RCUT
     0    -13.7508458     23  1.200
     0     -8.2022199     23  1.200
     1     -5.2854383     23  1.500
     1     34.0145650     23  1.500
     2     -5.4423304      7  1.500
  local pseudopotential read in
  partial core-charges read in
  partial kinetic energy density read in
  atomic valenz-charges read in
  non local Contribution for L=           0  read in
    real space projection operators read in
  non local Contribution for L=           0  read in
    real space projection operators read in
  non local Contribution for L=           1  read in
    real space projection operators read in
  non local Contribution for L=           1  read in
    real space projection operators read in
    PAW grid and wavefunctions read in

   number of l-projection  operators is LMAX  =           4
   number of lm-projection operators is LMMAX =           8

 POTCAR:    PAW_PBE O 08Apr2002
   SHA256 =  818f92134a0a090dccd8ba1447fa70422a3b330e708bb4f08108d8ae51209ddf O/POTCAR
   COPYR  = (c) Copyright 08Apr2002 Georg Kresse
   COPYR  = This file is part of the software VASP. Any use, copying, and all other rights are regul
   COPYR  = If you do not have a valid VASP license, you may not use, copy or distribute this file.
   VRHFIN =O: s2p4
   LEXCH  = PE
   EATOM  =   432.3788 eV,   31.7789 Ry

   TITEL  = PAW_PBE O 08Apr2002
   LULTRA =        F    use ultrasoft PP ?
   IUNSCR =        1    unscreen: 0-lin 1-nonlin 2-no
   RPACOR =    1.200    partial core radius
   POMASS =   16.000; ZVAL   =    6.000    mass and valenz
   RCORE  =    1.520    outmost cutoff radius
   RWIGS  =    1.550; RWIGS  =    0.820    wigner-seitz radius (au A)
   ENMAX  =  400.000; ENMIN  =  300.000 eV
   ICORE  =        2    local potential
   LCOR   =        T    correct aug charges
   LPAW   =        T    paw PP
   EAUG   =  605.392
   DEXC   =    0.000
   RMAX   =    1.553    core radius for proj-oper
   RAUG   =    1.300    factor for augmentation sphere
   RDEP   =    1.550    radius for radial grids
   RDEPT  =    1.329    core radius for aug-charge

   Atomic configuration
    4 entries
     n  l   j            E        occ.
     1  0  0.50      -514.6923   2.0000
     2  0  0.50       -23.9615   2.0000
     2  1  0.50        -9.0305   4.0000
     3  2  1.50        -9.5241   0.0000
   Description
     l       E           TYP  RCUT    TYP  RCUT
     0    -23.9615318     23  1.200
     0     -9.5240782     23  1.200
     1     -9.0304911     23  1.520
     1      8.1634956     23  1.520
     2     -9.5240782      7  1.500
  local pseudopotential read in
  partial core-charges read in
  partial kinetic energy density read in
  kinetic energy density of atom read in
  atomic valenz-charges read in
  non local Contribution for L=           0  read in
    real space projection operators read in
  non local Contribution for L=           0  read in
    real space projection operators read in
  non local Contribution for L=           1  read in
    real space projection operators read in
  non local Contribution for L=           1  read in
    real space projection operators read in
    PAW grid and wavefunctions read in

   number of l-projection  operators is LMAX  =           4
   number of lm-projection operators is LMMAX =           8

 -----------------------------------------------------------------------------
|                                                                             |
|               ----> ADVICE to this user running VASP <----                  |
|                                                                             |
|     You enforced a specific xc type in the INCAR file but a different       |
|     type was found in the POTCAR file.                                      |
|     I HOPE YOU KNOW WHAT YOU ARE DOING!                                     |
|                                                                             |
 -----------------------------------------------------------------------------

  PAW_PBE C 08Apr2002                   :
 energy of atom  1       EATOM= -147.1560
 kinetic energy error for atom=    0.0057 (will be added to EATOM!!)
  PAW_PBE O 08Apr2002                   :
 energy of atom  2       EATOM= -432.3788
 kinetic energy error for atom=    0.0168 (will be added to EATOM!!)


 POSCAR:  C  O
  positions in direct lattice
  No initial velocities read in
 -----------------------------------------------------------------------------
|                                                                             |
|           W    W    AA    RRRRR   N    N  II  N    N   GGGG   !!!           |
|           W    W   A  A   R    R  NN   N  II  NN   N  G    G  !!!           |
|           W    W  A    A  R    R  N N  N  II  N N  N  G       !!!           |
|           W WW W  AAAAAA  RRRRR   N  N N  II  N  N N  G  GGG   !            |
|           WW  WW  A    A  R   R   N   NN  II  N   NN  G    G                |
|           W    W  A    A  R    R  N    N  II  N    N   GGGG   !!!           |
|                                                                             |
|     Specifying the vdW parameters                                           |
|     VDW_S8 = 1.747                                                          |
|     VDW_A1 = 0.536                                                          |
|     VDW_A2 = 3.073                                                          |
|     in the INCAR file will overwrite the defaults for revpbe. Please        |
|     make sure that is what you intended.                                    |
|                                                                             |
 -----------------------------------------------------------------------------

 exchange correlation table for  LEXCH =       40
   RHO(1)=    0.500       N(1)  =     2000
   RHO(2)=  100.500       N(2)  =     4000



--------------------------------------------------------------------------------------------------------


 ion  position               nearest neighbor table
   1  0.500  0.500  0.765-   2 1.15
   2  0.500  0.500  0.819-   1 1.15

  LATTYP: Found a simple tetragonal cell.
 ALAT       =     8.4409846542
 C/A-ratio  =     2.5270438657

  Lattice vectors:

 A1 = (   8.4409846542,   0.0000000000,   0.0000000000)
 A2 = (   0.0000000000,   8.4409846542,   0.0000000000)
 A3 = (   0.0000000000,   0.0000000000,  21.3307384906)


Analysis of symmetry for initial positions (statically):
=====================================================================
 Subroutine PRICEL returns:
 Original cell was already a primitive cell.


 Routine SETGRP: Setting up the symmetry group for a
 simple tetragonal supercell.


 Subroutine GETGRP returns: Found  8 space group operations
 (whereof  8 operations were pure point group operations)
 out of a pool of 16 trial point group operations.


The static configuration has the point symmetry C_4v.


Analysis of symmetry for dynamics (positions and initial velocities):
=====================================================================
 Subroutine PRICEL returns:
 Original cell was already a primitive cell.


 Routine SETGRP: Setting up the symmetry group for a
 simple tetragonal supercell.


 Subroutine GETGRP returns: Found  8 space group operations
 (whereof  8 operations were pure point group operations)
 out of a pool of 16 trial point group operations.


The dynamic configuration has the point symmetry C_4v.


 Subroutine INISYM returns: Found  8 space group operations
 (whereof  8 operations are pure point group operations),
 and found     1 'primitive' translations


----------------------------------------------------------------------------------------

                                     Primitive cell

  volume of cell :    1519.8199

  direct lattice vectors                    reciprocal lattice vectors
     8.440984654  0.000000000  0.000000000     0.118469591  0.000000000  0.000000000
     0.000000000  8.440984654  0.000000000     0.000000000  0.118469591  0.000000000
     0.000000000  0.000000000 21.330738491     0.000000000  0.000000000  0.046880702

  length of vectors
     8.440984654  8.440984654 21.330738491     0.118469591  0.118469591  0.046880702

  position of ions in fractional coordinates (direct lattice)
     0.500000000  0.500000000  0.765053803
     0.500000000  0.500000000  0.818817521

  ion indices of the primitive-cell ions
   primitive index   ion index
                 1           1
                 2           2

----------------------------------------------------------------------------------------



 KPOINTS: pymatgen v2020.8.13 with grid density =

Automatic generation of k-mesh.
 Grid dimensions read from file:
 generate k-points for:    2    2    1

 Generating k-lattice:

  Cartesian coordinates                     Fractional coordinates (reciprocal lattice)
     0.059234796  0.000000000  0.000000000     0.500000000  0.000000000  0.000000000
     0.000000000  0.059234796  0.000000000     0.000000000  0.500000000  0.000000000
     0.000000000  0.000000000  0.046880702     0.000000000  0.000000000  1.000000000

  Length of vectors
     0.059234796  0.059234796  0.046880702

  Shift w.r.t. Gamma in fractional coordinates (k-lattice)
     0.000000000  0.000000000  0.000000000


 Subroutine IBZKPT returns following result:
 ===========================================

 Found      3 irreducible k-points:

 Following reciprocal coordinates:
            Coordinates               Weight
  0.000000  0.000000  0.000000      1.000000
  0.500000  0.000000  0.000000      2.000000
  0.500000  0.500000  0.000000      1.000000

 Following cartesian coordinates:
            Coordinates               Weight
  0.000000  0.000000  0.000000      1.000000
  0.059235  0.000000  0.000000      2.000000
  0.059235  0.059235  0.000000      1.000000



--------------------------------------------------------------------------------------------------------




 Dimension of arrays:
   k-points           NKPTS =      3   k-points in BZ     NKDIM =      3   number of bands    NBANDS=    152
   number of dos      NEDOS =    301   number of ions     NIONS =      2
   non local maximal  LDIM  =      4   non local SUM 2l+1 LMDIM =      8
   total plane-waves  NPLWV = 882000
   max r-space proj   IRMAX =      1   max aug-charges    IRDMAX=   7728
   dimension x,y,z NGX =    70 NGY =   70 NGZ =  180
   dimension x,y,z NGXF=   140 NGYF=  140 NGZF=  360
   support grid    NGXF=   140 NGYF=  140 NGZF=  360
   ions per type =               1   1
   NGX,Y,Z   is equivalent  to a cutoff of  13.79, 13.79, 14.03 a.u.
   NGXF,Y,Z  is equivalent  to a cutoff of  27.57, 27.57, 28.06 a.u.

 SYSTEM =  MgO-rocksalt
 POSCAR =   C  O

 Startparameter for this run:
   NWRITE =      2    write-flag & timer
   PREC   = accura    normal or accurate (medium, high low for compatibility)
   ISTART =      0    job   : 0-new  1-cont  2-samecut
   ICHARG =      2    charge: 1-file 2-atom 10-const
   ISPIN  =      1    spin polarized calculation?
   LNONCOLLINEAR =      F non collinear calculations
   LSORBIT =      F    spin-orbit coupling
   INIWAV =      1    electr: 0-lowe 1-rand  2-diag
   LASPH  =      T    aspherical Exc in radial PAW
 Electronic Relaxation 1
   ENCUT  =  600.0 eV  44.10 Ry    6.64 a.u.  16.86 16.86 42.60*2*pi/ulx,y,z
   ENINI  =  600.0     initial cutoff
   ENAUG  =  644.9 eV  augmentation charge cutoff
   NELM   =    200;   NELMIN=  8; NELMDL= -5     # of ELM steps
   EDIFF  = 0.1E-04   stopping-criterion for ELM
   LREAL  =      F    real-space projection
   NLSPLINE    = F    spline interpolate recip. space projectors
   LCOMPAT=      F    compatible to vasp.4.4
   GGA_COMPAT  = T    GGA compatible to vasp.4.4-vasp.4.6
   LMAXPAW     = -100 max onsite density
   LMAXMIX     =    2 max onsite mixed and CHGCAR
   VOSKOWN=      0    Vosko Wilk Nusair interpolation
   ROPT   =    0.00000   0.00000
 Ionic relaxation
   EDIFFG = 0.1E-03   stopping-criterion for IOM
   NSW    =      0    number of steps for IOM
   NBLOCK =      1;   KBLOCK =      1    inner block; outer block
   IBRION =     -1    ionic relax: 0-MD 1-quasi-New 2-CG
   NFREE  =      0    steps in history (QN), initial steepest desc. (CG)
   ISIF   =      2    stress and relaxation
   IWAVPR =     10    prediction:  0-non 1-charg 2-wave 3-comb
   ISYM   =      2    0-nonsym 1-usesym 2-fastsym
   LCORR  =      T    Harris-Foulkes like correction to forces

   POTIM  = 0.5000    time-step for ionic-motion
   TEIN   =    0.0    initial temperature
   TEBEG  =    0.0;   TEEND  =   0.0 temperature during run
   SMASS  =  -3.00    Nose mass-parameter (am)
   estimated Nose-frequenzy (Omega)   =  0.10E-29 period in steps = 0.13E+47 mass=  -0.163E-26a.u.
   SCALEE = 1.0000    scale energy and forces
   NPACO  =    256;   APACO  = 10.0  distance and # of slots for P.C.
   PSTRESS=    0.0 pullay stress

  Mass of Ions in am
   POMASS =  12.01 16.00
  Ionic Valenz
   ZVAL   =   4.00  6.00
  Atomic Wigner-Seitz radii
   RWIGS  =  -1.00 -1.00
  virtual crystal weights
   VCA    =   1.00  1.00
   NELECT =      10.0000    total number of electrons
   NUPDOWN=      -1.0000    fix difference up-down

 DOS related values:
   EMIN   =  10.00;   EMAX   =-10.00  energy-range for DOS
   EFERMI =   0.00
   ISMEAR =     0;   SIGMA  =   0.05  broadening in eV -4-tet -1-fermi 0-gaus

 Electronic relaxation 2 (details)
   IALGO  =     58    algorithm
   LDIAG  =      T    sub-space diagonalisation (order eigenvalues)
   LSUBROT=      F    optimize rotation matrix (better conditioning)
   TURBO    =      0    0=normal 1=particle mesh
   IRESTART =      0    0=no restart 2=restart with 2 vectors
   NREBOOT  =      0    no. of reboots
   NMIN     =      0    reboot dimension
   EREF     =   0.00    reference energy to select bands
   IMIX   =      4    mixing-type and parameters
     AMIX     =   0.40;   BMIX     =  1.00
     AMIX_MAG =   1.60;   BMIX_MAG =  1.00
     AMIN     =   0.10
     WC   =   100.;   INIMIX=   1;  MIXPRE=   1;  MAXMIX= -45

 Intra band minimization:
   WEIMIN = 0.0000     energy-eigenvalue tresh-hold
   EBREAK =  0.16E-07  absolut break condition
   DEPER  =   0.30     relativ break condition

   TIME   =   0.40     timestep for ELM

  volume/ion in A,a.u.               =     759.91      5128.13
  Fermi-wavevector in a.u.,A,eV,Ry     =   0.306769  0.579708  1.280402  0.094107
  Thomas-Fermi vector in A             =   1.181026

 Write flags
   LWAVE        =      F    write WAVECAR
   LDOWNSAMPLE  =      F    k-point downsampling of WAVECAR
   LCHARG       =      F    write CHGCAR
   LVTOT        =      F    write LOCPOT, total local potential
   LVHAR        =      F    write LOCPOT, Hartree potential only
   LELF         =      F    write electronic localiz. function (ELF)
   LORBIT       =      0    0 simple, 1 ext, 2 COOP (PROOUT), +10 PAW based schemes


 Dipole corrections
   LMONO  =      F    monopole corrections only (constant potential shift)
   LDIPOL =      T    correct potential (dipole corrections)
   IDIPOL =      3    1-x, 2-y, 3-z, 4-all directions
   EPSILON=  1.0000000 bulk dielectric constant

 Exchange correlation treatment:
   GGA     =    RE    GGA type
   LEXCH   =    40    internal setting for exchange type
   LIBXC   =     F    Libxc
   VOSKOWN =     0    Vosko Wilk Nusair interpolation
   LHFCALC =     F    Hartree Fock is set to
   LHFONE  =     F    Hartree Fock one center treatment
   AEXX    =    0.0000 exact exchange contribution

 Linear response parameters
   LEPSILON=     F    determine dielectric tensor
   LRPA    =     F    only Hartree local field effects (RPA)
   LNABLA  =     F    use nabla operator in PAW spheres
   LVEL    =     F    velocity operator in full k-point grid
   CSHIFT  =0.1000    complex shift for real part using Kramers Kronig
   OMEGAMAX=  -1.0    maximum frequency
   DEG_THRESHOLD= 0.2000000E-02 threshold for treating states as degnerate
   RTIME   =   -0.100 relaxation time in fs
  (WPLASMAI=    0.000 imaginary part of plasma frequency in eV, 0.658/RTIME)
   DFIELD  = 0.0000000 0.0000000 0.0000000 field for delta impulse in time

  Optional k-point grid parameters
   LKPOINTS_OPT  =     F    use optional k-point grid
   KPOINTS_OPT_MODE=     1    mode for optional k-point grid

 Orbital magnetization related:
   ORBITALMAG=     F  switch on orbital magnetization
   LCHIMAG   =     F  perturbation theory with respect to B field
   DQ        =  0.001000  dq finite difference perturbation B field
   LLRAUG    =     F  two centre corrections for induced B field



--------------------------------------------------------------------------------------------------------


 Static calculation
 charge density and potential will be updated during run
 non-spin polarized calculation
 Conjugate gradient for all bands (Freysoldt, et al. PRB 79, 241103 (2009))
 preconditioned conjugated gradient
 perform sub-space diagonalisation
    before iterative eigenvector-optimisation
 modified Broyden-mixing scheme, WC =      100.0
 initial mixing is a Kerker type mixing with AMIX =  0.4000 and BMIX =      1.0000
 Hartree-type preconditioning will be used
 using additional bands          147
 reciprocal scheme for non local part
 use partial core corrections
 no Harris-corrections to forces
 use gradient corrections
 use of overlap-Matrix (Vanderbilt PP)
 Gauss-broadening in eV      SIGMA  =   0.05


--------------------------------------------------------------------------------------------------------


  energy-cutoff  :      600.00
  volume of cell :     1519.82
      direct lattice vectors                 reciprocal lattice vectors
     8.440984654  0.000000000  0.000000000     0.118469591  0.000000000  0.000000000
     0.000000000  8.440984654  0.000000000     0.000000000  0.118469591  0.000000000
     0.000000000  0.000000000 21.330738491     0.000000000  0.000000000  0.046880702

  length of vectors
     8.440984654  8.440984654 21.330738491     0.118469591  0.118469591  0.046880702



 k-points in units of 2pi/SCALE and weight: pymatgen v2020.8.13 with grid density =
   0.00000000  0.00000000  0.00000000       0.250
   0.05923480  0.00000000  0.00000000       0.500
   0.05923480  0.05923480  0.00000000       0.250

 k-points in reciprocal lattice and weights: pymatgen v2020.8.13 with grid density =
   0.00000000  0.00000000  0.00000000       0.250
   0.50000000  0.00000000  0.00000000       0.500
   0.50000000  0.50000000  0.00000000       0.250

 position of ions in fractional coordinates (direct lattice)
   0.50000000  0.50000000  0.76505380
   0.50000000  0.50000000  0.81881752

 position of ions in cartesian coordinates  (Angst):
   4.22049233  4.22049233 16.31916259
   4.22049233  4.22049233 17.46598241



--------------------------------------------------------------------------------------------------------


 k-point   1 :   0.0000 0.0000 0.0000  plane waves:   50745
 k-point   2 :   0.5000 0.0000 0.0000  plane waves:   50798
 k-point   3 :   0.5000 0.5000 0.0000  plane waves:   50752

 maximum and minimum number of plane-waves per node :     25438    25340

 maximum number of plane-waves:     50798
 maximum index in each direction:
   IXMAX=   16   IYMAX=   16   IZMAX=   42
   IXMIN=  -17   IYMIN=  -17   IZMIN=  -42


 parallel 3D FFT for wavefunctions:
    minimum data exchange during FFTs selected (reduces bandwidth)
 parallel 3D FFT for charge:
    minimum data exchange during FFTs selected (reduces bandwidth)


 total amount of memory used by VASP MPI-rank0    79451. kBytes
=======================================================================

   base      :      30000. kBytes
   nonl-proj :      10622. kBytes
   fftplans  :      14615. kBytes
   grid      :      20512. kBytes
   one-center:          3. kBytes
   wavefun   :       3699. kBytes

     INWAV:  cpu time      0.0000: real time      0.0000
 Broyden mixing: mesh for mixing (old mesh)
   NGX = 33   NGY = 33   NGZ = 85
  (NGX  =140   NGY  =140   NGZ  =360)
  gives a total of  92565 points

 initial charge density was supplied:
 charge density of overlapping atoms calculated
 number of electron      10.0000000 magnetization
 keeping initial charge density in first step


--------------------------------------------------------------------------------------------------------


 Maximum index for augmentation-charges            0 (set IRDMAX)


--------------------------------------------------------------------------------------------------------


 First call to EWALD:  gamma=   0.154
 Maximum number of real-space cells 4x 4x 2
 Maximum number of reciprocal cells 2x 2x 5

    FEWALD:  cpu time      0.0010: real time      0.0010


--------------------------------------- Iteration      1(   1)  ---------------------------------------


    POTLOK:  cpu time      0.1092: real time      0.1096
    SETDIJ:  cpu time      0.0316: real time      0.0317
    TRIAL :  cpu time      0.7947: real time      0.7979
    CORREC:  cpu time      0.0001: real time      0.0001
    --------------------------------------------
      LOOP:  cpu time      0.9373: real time      0.9418

 eigenvalue-minimisations  :   912
 total energy-change (2. order) : 0.4683639E+02  (-0.4098491E+03)
 number of electron      10.0000000 magnetization
 augmentation part       10.0000000 magnetization

 DIPCOR: dipole corrections for dipol
 direction  3 min pos     1,
 dipolmoment           0.000000      0.000000     -0.000250 electrons x Angstroem
 Tr[quadrupol]      -355.254441

 energy correction for charged system         0.000000 eV
 dipol+quadrupol energy correction           -0.000000 eV
 added-field ion interaction          0.001889 eV  (added to PSCEN)


 Free energy of the ion-electron system (eV)
  ---------------------------------------------------
  alpha Z        PSCENC =         0.28939502
  Ewald energy   TEWEN  =       192.88447950
  -Hartree energ DENC   =      -654.07813843
  -exchange      EXHF   =         0.00000000
  -V(xc)+E(xc)   XCENC  =        38.80223434
  PAW double counting   =       455.56453932     -457.22430280
  entropy T*S    EENTRO =        -0.00000000
  eigenvalues    EBANDS =      -108.53617715
  atomic energy  EATOM  =       579.13436270
  ---------------------------------------------------
  free energy    TOTEN  =        46.83639249 eV

  energy without entropy =       46.83639249  energy(sigma->0) =       46.83639249


--------------------------------------------------------------------------------------------------------




--------------------------------------- Iteration      1(   2)  ---------------------------------------


    TRIAL :  cpu time      1.2716: real time      1.2770
    CORREC:  cpu time      0.0001: real time      0.0001
    --------------------------------------------
      LOOP:  cpu time      1.2726: real time      1.2826

 eigenvalue-minimisations  :  1368
 total energy-change (2. order) :-0.6195745E+02  (-0.6195745E+02)
 number of electron      10.0000000 magnetization
 augmentation part       10.0000000 magnetization

 DIPCOR: dipole corrections for dipol
 direction  3 min pos     1,
 dipolmoment           0.000000      0.000000     -0.000250 electrons x Angstroem
 Tr[quadrupol]      -355.254441

 energy correction for charged system         0.000000 eV
 dipol+quadrupol energy correction           -0.000000 eV
 added-field ion interaction          0.001889 eV  (added to PSCEN)


 Free energy of the ion-electron system (eV)
  ---------------------------------------------------
  alpha Z        PSCENC =         0.28939502
  Ewald energy   TEWEN  =       192.88447950
  -Hartree energ DENC   =      -654.07813843
  -exchange      EXHF   =         0.00000000
  -V(xc)+E(xc)   XCENC  =        38.80223434
  PAW double counting   =       455.56453932     -457.22430280
  entropy T*S    EENTRO =        -0.00000000
  eigenvalues    EBANDS =      -170.49363205
  atomic energy  EATOM  =       579.13436270
  ---------------------------------------------------
  free energy    TOTEN  =       -15.12106241 eV

  energy without entropy =      -15.12106241  energy(sigma->0) =      -15.12106241


--------------------------------------------------------------------------------------------------------




--------------------------------------- Iteration      1(   3)  ---------------------------------------


    TRIAL :  cpu time      0.6596: real time      0.6624
    CORREC:  cpu time      0.0001: real time      0.0001
    --------------------------------------------
      LOOP:  cpu time      0.6599: real time      0.6626

 eigenvalue-minimisations  :   912
 total energy-change (2. order) :-0.1627704E+00  (-0.1627704E+00)
 number of electron      10.0000000 magnetization
 augmentation part       10.0000000 magnetization

 DIPCOR: dipole corrections for dipol
 direction  3 min pos     1,
 dipolmoment           0.000000      0.000000     -0.000250 electrons x Angstroem
 Tr[quadrupol]      -355.254441

 energy correction for charged system         0.000000 eV
 dipol+quadrupol energy correction           -0.000000 eV
 added-field ion interaction          0.001889 eV  (added to PSCEN)


 Free energy of the ion-electron system (eV)
  ---------------------------------------------------
  alpha Z        PSCENC =         0.28939502
  Ewald energy   TEWEN  =       192.88447950
  -Hartree energ DENC   =      -654.07813843
  -exchange      EXHF   =         0.00000000
  -V(xc)+E(xc)   XCENC  =        38.80223434
  PAW double counting   =       455.56453932     -457.22430280
  entropy T*S    EENTRO =        -0.00000000
  eigenvalues    EBANDS =      -170.65640249
  atomic energy  EATOM  =       579.13436270
  ---------------------------------------------------
  free energy    TOTEN  =       -15.28383286 eV

  energy without entropy =      -15.28383286  energy(sigma->0) =      -15.28383286


--------------------------------------------------------------------------------------------------------




--------------------------------------- Iteration      1(   4)  ---------------------------------------


    TRIAL :  cpu time      2.3253: real time      2.3344
    CORREC:  cpu time      0.0001: real time      0.0001
    --------------------------------------------
      LOOP:  cpu time      2.3256: real time      2.3347

 eigenvalue-minimisations  :  1824
 total energy-change (2. order) :-0.4660170E-03  (-0.4660170E-03)
 number of electron      10.0000000 magnetization
 augmentation part       10.0000000 magnetization

 DIPCOR: dipole corrections for dipol
 direction  3 min pos     1,
 dipolmoment           0.000000      0.000000     -0.000250 electrons x Angstroem
 Tr[quadrupol]      -355.254441

 energy correction for charged system         0.000000 eV
 dipol+quadrupol energy correction           -0.000000 eV
 added-field ion interaction          0.001889 eV  (added to PSCEN)


 Free energy of the ion-electron system (eV)
  ---------------------------------------------------
  alpha Z        PSCENC =         0.28939502
  Ewald energy   TEWEN  =       192.88447950
  -Hartree energ DENC   =      -654.07813843
  -exchange      EXHF   =         0.00000000
  -V(xc)+E(xc)   XCENC  =        38.80223434
  PAW double counting   =       455.56453932     -457.22430280
  entropy T*S    EENTRO =        -0.00000000
  eigenvalues    EBANDS =      -170.65686851
  atomic energy  EATOM  =       579.13436270
  ---------------------------------------------------
  free energy    TOTEN  =       -15.28429887 eV

  energy without entropy =      -15.28429887  energy(sigma->0) =      -15.28429887


--------------------------------------------------------------------------------------------------------




--------------------------------------- Iteration      1(   5)  ---------------------------------------


    TRIAL :  cpu time      0.6685: real time      0.6713
    CORREC:  cpu time      0.0001: real time      0.0001
    CHARGE:  cpu time      0.0978: real time      0.0982
    --------------------------------------------
      LOOP:  cpu time      0.7666: real time      0.7698

 eigenvalue-minimisations  :   912
 total energy-change (2. order) :-0.3280661E-08  (-0.3258913E-08)
 number of electron       9.9999999 magnetization
 augmentation part        0.7240477 magnetization

 DIPCOR: dipole corrections for dipol
 direction  3 min pos     1,
 dipolmoment           0.000000      0.000000     -0.000250 electrons x Angstroem
 Tr[quadrupol]      -355.254441

 energy correction for charged system         0.000000 eV
 dipol+quadrupol energy correction           -0.000000 eV
 added-field ion interaction          0.001889 eV  (added to PSCEN)


 Free energy of the ion-electron system (eV)
  ---------------------------------------------------
  alpha Z        PSCENC =         0.28939502
  Ewald energy   TEWEN  =       192.88447950
  -Hartree energ DENC   =      -654.07813843
  -exchange      EXHF   =         0.00000000
  -V(xc)+E(xc)   XCENC  =        38.80223434
  PAW double counting   =       455.56453932     -457.22430280
  entropy T*S    EENTRO =        -0.00000000
  eigenvalues    EBANDS =      -170.65686852
  atomic energy  EATOM  =       579.13436270
  ---------------------------------------------------
  free energy    TOTEN  =       -15.28429888 eV

  energy without entropy =      -15.28429888  energy(sigma->0) =      -15.28429888


--------------------------------------------------------------------------------------------------------




--------------------------------------- Iteration      1(   6)  ---------------------------------------


    POTLOK:  cpu time      0.0684: real time      0.0686
    SETDIJ:  cpu time      0.0310: real time      0.0310
    TRIAL :  cpu time      0.2462: real time      0.2474
    CORREC:  cpu time      0.2870: real time      0.2881
    CHARGE:  cpu time      0.0893: real time      0.0896
    --------------------------------------------
      LOOP:  cpu time      0.7247: real time      0.7276

 eigenvalue-minimisations  :     0
 total energy-change (2. order) : 0.1747301E+01  (-0.7790370E+00)
 number of electron      10.0000000 magnetization
 augmentation part        0.6687534 magnetization

 DIPCOR: dipole corrections for dipol
 direction  3 min pos     1,
 dipolmoment           0.000000      0.000000     -0.003551 electrons x Angstroem
 Tr[quadrupol]      -355.127302

 energy correction for charged system         0.000000 eV
 dipol+quadrupol energy correction           -0.000001 eV
 added-field ion interaction          0.026817 eV  (added to PSCEN)


 Free energy of the ion-electron system (eV)
  ---------------------------------------------------
  alpha Z        PSCENC =        -0.80614326
  Ewald energy   TEWEN  =       192.88447950
  -Hartree energ DENC   =      -700.57288203
  -exchange      EXHF   =         0.00000000
  -V(xc)+E(xc)   XCENC  =        41.41204734
  PAW double counting   =       861.27162159     -863.27933065
  entropy T*S    EENTRO =        -0.00000000
  eigenvalues    EBANDS =      -123.58115342
  atomic energy  EATOM  =       579.13436270
  ---------------------------------------------------
  free energy    TOTEN  =       -13.53699822 eV

  energy without entropy =      -13.53699822  energy(sigma->0) =      -13.53699822


--------------------------------------------------------------------------------------------------------




--------------------------------------- Iteration      1(   7)  ---------------------------------------


    POTLOK:  cpu time      0.0610: real time      0.0611
    SETDIJ:  cpu time      0.0301: real time      0.0302
    TRIAL :  cpu time      0.2344: real time      0.2355
    CORREC:  cpu time      0.2851: real time      0.2862
    CHARGE:  cpu time      0.0905: real time      0.0908
    --------------------------------------------
      LOOP:  cpu time      0.7025: real time      0.7053

 eigenvalue-minimisations  :     0
 total energy-change (2. order) :-0.7802743E+00  (-0.1212189E+00)
 number of electron      10.0000000 magnetization
 augmentation part        0.6524523 magnetization

 DIPCOR: dipole corrections for dipol
 direction  3 min pos     1,
 dipolmoment           0.000000      0.000000     -0.009091 electrons x Angstroem
 Tr[quadrupol]      -355.295724

 energy correction for charged system         0.000000 eV
 dipol+quadrupol energy correction           -0.000005 eV
 added-field ion interaction          0.068644 eV  (added to PSCEN)


 Free energy of the ion-electron system (eV)
  ---------------------------------------------------
  alpha Z        PSCENC =         0.15504687
  Ewald energy   TEWEN  =       192.88447950
  -Hartree energ DENC   =      -680.91542174
  -exchange      EXHF   =         0.00000000
  -V(xc)+E(xc)   XCENC  =        40.35773658
  PAW double counting   =       849.29630194     -851.08790527
  entropy T*S    EENTRO =        -0.00000000
  eigenvalues    EBANDS =      -144.14187308
  atomic energy  EATOM  =       579.13436270
  ---------------------------------------------------
  free energy    TOTEN  =       -14.31727250 eV

  energy without entropy =      -14.31727250  energy(sigma->0) =      -14.31727250


--------------------------------------------------------------------------------------------------------




--------------------------------------- Iteration      1(   8)  ---------------------------------------


    POTLOK:  cpu time      0.0598: real time      0.0600
    SETDIJ:  cpu time      0.0304: real time      0.0305
    TRIAL :  cpu time      0.2242: real time      0.2253
    CORREC:  cpu time      0.2804: real time      0.2814
    CHARGE:  cpu time      0.0908: real time      0.0911
    --------------------------------------------
      LOOP:  cpu time      0.6867: real time      0.6895

 eigenvalue-minimisations  :     0
 total energy-change (2. order) :-0.1209990E+00  (-0.4580667E-01)
 number of electron      10.0000000 magnetization
 augmentation part        0.6507183 magnetization

 DIPCOR: dipole corrections for dipol
 direction  3 min pos     1,
 dipolmoment           0.000000      0.000000     -0.036429 electrons x Angstroem
 Tr[quadrupol]      -355.633722

 energy correction for charged system         0.000000 eV
 dipol+quadrupol energy correction           -0.000079 eV
 added-field ion interaction          0.275074 eV  (added to PSCEN)


 Free energy of the ion-electron system (eV)
  ---------------------------------------------------
  alpha Z        PSCENC =         0.45507489
  Ewald energy   TEWEN  =       192.88447950
  -Hartree energ DENC   =      -677.73461954
  -exchange      EXHF   =         0.00000000
  -V(xc)+E(xc)   XCENC  =        40.18769151
  PAW double counting   =       856.26082919     -857.94937521
  entropy T*S    EENTRO =        -0.00000000
  eigenvalues    EBANDS =      -147.67671456
  atomic energy  EATOM  =       579.13436270
  ---------------------------------------------------
  free energy    TOTEN  =       -14.43827152 eV

  energy without entropy =      -14.43827152  energy(sigma->0) =      -14.43827152


--------------------------------------------------------------------------------------------------------




--------------------------------------- Iteration      1(   9)  ---------------------------------------


    POTLOK:  cpu time      0.0578: real time      0.0580
    SETDIJ:  cpu time      0.0311: real time      0.0312
    TRIAL :  cpu time      0.2256: real time      0.2267
    CORREC:  cpu time      0.2780: real time      0.2790
    CHARGE:  cpu time      0.0901: real time      0.0904
    --------------------------------------------
      LOOP:  cpu time      0.6841: real time      0.6867

 eigenvalue-minimisations  :     0
 total energy-change (2. order) :-0.4566814E-01  (-0.1633792E-01)
 number of electron      10.0000000 magnetization
 augmentation part        0.6515327 magnetization

 DIPCOR: dipole corrections for dipol
 direction  3 min pos     1,
 dipolmoment           0.000000      0.000000     -0.040287 electrons x Angstroem
 Tr[quadrupol]      -355.668253

 energy correction for charged system         0.000000 eV
 dipol+quadrupol energy correction           -0.000097 eV
 added-field ion interaction          0.304206 eV  (added to PSCEN)


 Free energy of the ion-electron system (eV)
  ---------------------------------------------------
  alpha Z        PSCENC =         0.60123506
  Ewald energy   TEWEN  =       192.88447950
  -Hartree energ DENC   =      -675.95626256
  -exchange      EXHF   =         0.00000000
  -V(xc)+E(xc)   XCENC  =        40.09492999
  PAW double counting   =       859.89597794     -861.57191012
  entropy T*S    EENTRO =        -0.00000000
  eigenvalues    EBANDS =      -149.56675216
  atomic energy  EATOM  =       579.13436270
  ---------------------------------------------------
  free energy    TOTEN  =       -14.48393966 eV

  energy without entropy =      -14.48393966  energy(sigma->0) =      -14.48393966


--------------------------------------------------------------------------------------------------------




--------------------------------------- Iteration      1(  10)  ---------------------------------------


    POTLOK:  cpu time      0.0600: real time      0.0602
    SETDIJ:  cpu time      0.0304: real time      0.0306
    TRIAL :  cpu time      0.2227: real time      0.2237
    CORREC:  cpu time      0.2844: real time      0.2854
    CHARGE:  cpu time      0.0919: real time      0.0922
    --------------------------------------------
      LOOP:  cpu time      0.6904: real time      0.6930

 eigenvalue-minimisations  :     0
 total energy-change (2. order) :-0.1629414E-01  (-0.4492039E-02)
 number of electron      10.0000000 magnetization
 augmentation part        0.6519578 magnetization

 DIPCOR: dipole corrections for dipol
 direction  3 min pos     1,
 dipolmoment           0.000000      0.000000     -0.035359 electrons x Angstroem
 Tr[quadrupol]      -355.597223

 energy correction for charged system         0.000000 eV
 dipol+quadrupol energy correction           -0.000074 eV
 added-field ion interaction          0.266993 eV  (added to PSCEN)


 Free energy of the ion-electron system (eV)
  ---------------------------------------------------
  alpha Z        PSCENC =         0.58930229
  Ewald energy   TEWEN  =       192.88447950
  -Hartree energ DENC   =      -675.07049058
  -exchange      EXHF   =         0.00000000
  -V(xc)+E(xc)   XCENC  =        40.04580572
  PAW double counting   =       859.17670393     -860.85915043
  entropy T*S    EENTRO =        -0.00000000
  eigenvalues    EBANDS =      -150.40124692
  atomic energy  EATOM  =       579.13436270
  ---------------------------------------------------
  free energy    TOTEN  =       -14.50023380 eV

  energy without entropy =      -14.50023380  energy(sigma->0) =      -14.50023380


--------------------------------------------------------------------------------------------------------




--------------------------------------- Iteration      1(  11)  ---------------------------------------


    POTLOK:  cpu time      0.0589: real time      0.0592
    SETDIJ:  cpu time      0.0305: real time      0.0306
    TRIAL :  cpu time      0.2246: real time      0.2255
    CORREC:  cpu time      0.2773: real time      0.2782
    CHARGE:  cpu time      0.0894: real time      0.0898
    --------------------------------------------
      LOOP:  cpu time      0.6822: real time      0.6847

 eigenvalue-minimisations  :     0
 total energy-change (2. order) :-0.4488930E-02  (-0.1191541E-02)
 number of electron      10.0000000 magnetization
 augmentation part        0.6521330 magnetization

 DIPCOR: dipole corrections for dipol
 direction  3 min pos     1,
 dipolmoment           0.000000      0.000000     -0.031393 electrons x Angstroem
 Tr[quadrupol]      -355.545797

 energy correction for charged system         0.000000 eV
 dipol+quadrupol energy correction           -0.000059 eV
 added-field ion interaction          0.237048 eV  (added to PSCEN)


 Free energy of the ion-electron system (eV)
  ---------------------------------------------------
  alpha Z        PSCENC =         0.54230477
  Ewald energy   TEWEN  =       192.88447950
  -Hartree energ DENC   =      -674.82881573
  -exchange      EXHF   =         0.00000000
  -V(xc)+E(xc)   XCENC  =        40.02936132
  PAW double counting   =       856.76718077     -858.45452573
  entropy T*S    EENTRO =        -0.00000000
  eigenvalues    EBANDS =      -150.57907033
  atomic energy  EATOM  =       579.13436270
  ---------------------------------------------------
  free energy    TOTEN  =       -14.50472273 eV

  energy without entropy =      -14.50472273  energy(sigma->0) =      -14.50472273


--------------------------------------------------------------------------------------------------------




--------------------------------------- Iteration      1(  12)  ---------------------------------------


    POTLOK:  cpu time      0.0603: real time      0.0605
    SETDIJ:  cpu time      0.0307: real time      0.0307
    TRIAL :  cpu time      0.2257: real time      0.2268
    CORREC:  cpu time      0.2796: real time      0.2806
    CHARGE:  cpu time      0.0892: real time      0.0894
    --------------------------------------------
      LOOP:  cpu time      0.6866: real time      0.6892

 eigenvalue-minimisations  :     0
 total energy-change (2. order) :-0.1191397E-02  (-0.2831724E-03)
 number of electron      10.0000000 magnetization
 augmentation part        0.6520735 magnetization

 DIPCOR: dipole corrections for dipol
 direction  3 min pos     1,
 dipolmoment           0.000000      0.000000     -0.029513 electrons x Angstroem
 Tr[quadrupol]      -355.522697

 energy correction for charged system         0.000000 eV
 dipol+quadrupol energy correction           -0.000052 eV
 added-field ion interaction          0.222850 eV  (added to PSCEN)


 Free energy of the ion-electron system (eV)
  ---------------------------------------------------
  alpha Z        PSCENC =         0.51775257
  Ewald energy   TEWEN  =       192.88447950
  -Hartree energ DENC   =      -674.70836390
  -exchange      EXHF   =         0.00000000
  -V(xc)+E(xc)   XCENC  =        40.02027415
  PAW double counting   =       854.75077656     -856.44161025
  entropy T*S    EENTRO =        -0.00000000
  eigenvalues    EBANDS =      -150.66358546
  atomic energy  EATOM  =       579.13436270
  ---------------------------------------------------
  free energy    TOTEN  =       -14.50591413 eV

  energy without entropy =      -14.50591413  energy(sigma->0) =      -14.50591413


--------------------------------------------------------------------------------------------------------




--------------------------------------- Iteration      1(  13)  ---------------------------------------


    POTLOK:  cpu time      0.0559: real time      0.0561
    SETDIJ:  cpu time      0.0311: real time      0.0312
    TRIAL :  cpu time      0.2295: real time      0.2306
    CORREC:  cpu time      0.2736: real time      0.2746
    CHARGE:  cpu time      0.0898: real time      0.0901
    --------------------------------------------
      LOOP:  cpu time      0.6819: real time      0.6846

 eigenvalue-minimisations  :     0
 total energy-change (2. order) :-0.2831661E-03  (-0.6654684E-04)
 number of electron      10.0000000 magnetization
 augmentation part        0.6520268 magnetization

 DIPCOR: dipole corrections for dipol
 direction  3 min pos     1,
 dipolmoment           0.000000      0.000000     -0.028614 electrons x Angstroem
 Tr[quadrupol]      -355.512353

 energy correction for charged system         0.000000 eV
 dipol+quadrupol energy correction           -0.000049 eV
 added-field ion interaction          0.216062 eV  (added to PSCEN)


 Free energy of the ion-electron system (eV)
  ---------------------------------------------------
  alpha Z        PSCENC =         0.50718976
  Ewald energy   TEWEN  =       192.88447950
  -Hartree energ DENC   =      -674.68282735
  -exchange      EXHF   =         0.00000000
  -V(xc)+E(xc)   XCENC  =        40.01762690
  PAW double counting   =       853.60558420     -855.29728055
  entropy T*S    EENTRO =        -0.00000000
  eigenvalues    EBANDS =      -150.67533246
  atomic energy  EATOM  =       579.13436270
  ---------------------------------------------------
  free energy    TOTEN  =       -14.50619730 eV

  energy without entropy =      -14.50619730  energy(sigma->0) =      -14.50619730


--------------------------------------------------------------------------------------------------------




--------------------------------------- Iteration      1(  14)  ---------------------------------------


    POTLOK:  cpu time      0.0596: real time      0.0598
    SETDIJ:  cpu time      0.0304: real time      0.0305
    TRIAL :  cpu time      0.2230: real time      0.2240
    CORREC:  cpu time      0.2731: real time      0.2740
    CHARGE:  cpu time      0.0908: real time      0.0911
    --------------------------------------------
      LOOP:  cpu time      0.6780: real time      0.6806

 eigenvalue-minimisations  :     0
 total energy-change (2. order) :-0.6645294E-04  (-0.1670027E-04)
 number of electron      10.0000000 magnetization
 augmentation part        0.6519972 magnetization

 DIPCOR: dipole corrections for dipol
 direction  3 min pos     1,
 dipolmoment           0.000000      0.000000     -0.028185 electrons x Angstroem
 Tr[quadrupol]      -355.507754

 energy correction for charged system         0.000000 eV
 dipol+quadrupol energy correction           -0.000047 eV
 added-field ion interaction          0.212821 eV  (added to PSCEN)


 Free energy of the ion-electron system (eV)
  ---------------------------------------------------
  alpha Z        PSCENC =         0.50168977
  Ewald energy   TEWEN  =       192.88447950
  -Hartree energ DENC   =      -674.70950653
  -exchange      EXHF   =         0.00000000
  -V(xc)+E(xc)   XCENC  =        40.01859080
  PAW double counting   =       853.06266483     -854.75436412
  entropy T*S    EENTRO =        -0.00000000
  eigenvalues    EBANDS =      -150.64418069
  atomic energy  EATOM  =       579.13436270
  ---------------------------------------------------
  free energy    TOTEN  =       -14.50626375 eV

  energy without entropy =      -14.50626375  energy(sigma->0) =      -14.50626375


--------------------------------------------------------------------------------------------------------




--------------------------------------- Iteration      1(  15)  ---------------------------------------


    POTLOK:  cpu time      0.0585: real time      0.0587
    SETDIJ:  cpu time      0.0303: real time      0.0304
    TRIAL :  cpu time      0.2281: real time      0.2291
    CORREC:  cpu time      0.2747: real time      0.2757
    CHARGE:  cpu time      0.0904: real time      0.0908
    --------------------------------------------
      LOOP:  cpu time      0.6828: real time      0.6854

 eigenvalue-minimisations  :     0
 total energy-change (2. order) :-0.1665968E-04  (-0.4599608E-05)
 number of electron      10.0000000 magnetization
 augmentation part        0.6519718 magnetization

 DIPCOR: dipole corrections for dipol
 direction  3 min pos     1,
 dipolmoment           0.000000      0.000000     -0.028046 electrons x Angstroem
 Tr[quadrupol]      -355.506505

 energy correction for charged system         0.000000 eV
 dipol+quadrupol energy correction           -0.000047 eV
 added-field ion interaction          0.211770 eV  (added to PSCEN)


 Free energy of the ion-electron system (eV)
  ---------------------------------------------------
  alpha Z        PSCENC =         0.49952951
  Ewald energy   TEWEN  =       192.88447950
  -Hartree energ DENC   =      -674.72997796
  -exchange      EXHF   =         0.00000000
  -V(xc)+E(xc)   XCENC  =        40.01955750
  PAW double counting   =       852.85256904     -854.54409723
  entropy T*S    EENTRO =        -0.00000000
  eigenvalues    EBANDS =      -150.62270346
  atomic energy  EATOM  =       579.13436270
  ---------------------------------------------------
  free energy    TOTEN  =       -14.50628041 eV

  energy without entropy =      -14.50628041  energy(sigma->0) =      -14.50628041


--------------------------------------------------------------------------------------------------------




--------------------------------------- Iteration      1(  16)  ---------------------------------------


    POTLOK:  cpu time      0.0570: real time      0.0572
    SETDIJ:  cpu time      0.0317: real time      0.0318
    TRIAL :  cpu time      0.2246: real time      0.2256
    CORREC:  cpu time      0.2830: real time      0.2841
    EDDIAG:  cpu time      0.1196: real time      0.1200
    CHARGE:  cpu time      0.0889: real time      0.0893
    --------------------------------------------
      LOOP:  cpu time      0.8060: real time      0.8092

 eigenvalue-minimisations  :     0
 total energy-change (2. order) :-0.4588012E-05  (-0.1188653E-05)
 number of electron      10.0000000 magnetization
 augmentation part        0.6519717 magnetization

 DIPCOR: dipole corrections for dipol
 direction  3 min pos     1,
 dipolmoment           0.000000      0.000000     -0.028007 electrons x Angstroem
 Tr[quadrupol]      -355.506279

 energy correction for charged system         0.000000 eV
 dipol+quadrupol energy correction           -0.000047 eV
 added-field ion interaction          0.211476 eV  (added to PSCEN)


 Free energy of the ion-electron system (eV)
  ---------------------------------------------------
  alpha Z        PSCENC =         0.49906092
  Ewald energy   TEWEN  =       192.88447950
  -Hartree energ DENC   =      -674.73771096
  -exchange      EXHF   =         0.00000000
  -V(xc)+E(xc)   XCENC  =        40.01994906
  PAW double counting   =       852.79226470     -854.48363894
  entropy T*S    EENTRO =        -0.00000000
  eigenvalues    EBANDS =      -150.61505197
  atomic energy  EATOM  =       579.13436270
  ---------------------------------------------------
  free energy    TOTEN  =       -14.50628500 eV

  energy without entropy =      -14.50628500  energy(sigma->0) =      -14.50628500


--------------------------------------------------------------------------------------------------------


  average scaling for gradient   1.3200


 average (electrostatic) potential at core
  the test charge radii are     0.6991  0.7215
  (the norm of the test charge is              1.0000)
       1 -61.7320       2 -83.4897



 E-fermi :  -8.7169     XC(G=0):  -0.4562     alpha+bet : -0.0941

 Fermi energy:        -8.7169226771

 k-point     1 :       0.0000    0.0000    0.0000
  band No.  band energies     occupation
      1     -29.1468      2.00000
      2     -13.9856      2.00000
      3     -11.5876      2.00000
      4     -11.5876      2.00000
      5      -8.9977      2.00000
      6      -2.0550      0.00000
      7      -2.0550      0.00000
      8      -0.4003      0.00000
      9       0.1594      0.00000
     10       0.2714      0.00000
     11       1.0716      0.00000
     12       1.1757      0.00000
     13       1.4959      0.00000
     14       1.4959      0.00000
     15       1.5696      0.00000
     16       2.0104      0.00000
     17       2.2433      0.00000
     18       2.2951      0.00000
     19       2.2951      0.00000
     20       2.3665      0.00000
     21       2.3723      0.00000
     22       2.3723      0.00000
     23       2.3826      0.00000
     24       2.4741      0.00000
     25       2.6505      0.00000
     26       2.8210      0.00000
     27       3.1417      0.00000
     28       3.1929      0.00000
     29       3.1929      0.00000
     30       3.2489      0.00000
     31       3.2916      0.00000
     32       3.2965      0.00000
     33       3.3022      0.00000
     34       3.3022      0.00000
     35       3.4196      0.00000
     36       3.7673      0.00000
     37       3.7673      0.00000
     38       4.1885      0.00000
     39       4.3673      0.00000
     40       4.4223      0.00000
     41       4.4223      0.00000
     42       4.4397      0.00000
     43       4.4501      0.00000
     44       4.4920      0.00000
     45       4.4920      0.00000
     46       4.5309      0.00000
     47       4.7370      0.00000
     48       4.8228      0.00000
     49       4.8228      0.00000
     50       4.9142      0.00000
     51       4.9142      0.00000
     52       4.9163      0.00000
     53       4.9314      0.00000
     54       5.0634      0.00000
     55       5.1240      0.00000
     56       5.1852      0.00000
     57       5.2830      0.00000
     58       5.2969      0.00000
     59       5.3864      0.00000
     60       5.3864      0.00000
     61       5.4354      0.00000
     62       5.4434      0.00000
     63       5.4434      0.00000
     64       5.6673      0.00000
     65       6.7136      0.00000
     66       6.7529      0.00000
     67       6.8468      0.00000
     68       6.8468      0.00000
     69       6.8820      0.00000
     70       6.9090      0.00000
     71       6.9866      0.00000
     72       6.9866      0.00000
     73       7.1159      0.00000
     74       7.2064      0.00000
     75       7.2257      0.00000
     76       7.2257      0.00000
     77       7.2266      0.00000
     78       7.2435      0.00000
     79       7.2435      0.00000
     80       7.2847      0.00000
     81       7.3616      0.00000
     82       7.9038      0.00000
     83       7.9038      0.00000
     84       8.0006      0.00000
     85       8.0315      0.00000
     86       8.4591      0.00000
     87       8.5115      0.00000
     88       8.6006      0.00000
     89       8.6100      0.00000
     90       8.6100      0.00000
     91       8.6481      0.00000
     92       8.7013      0.00000
     93       8.7013      0.00000
     94       8.7235      0.00000
     95       8.8108      0.00000
     96       9.1669      0.00000
     97       9.1850      0.00000
     98       9.1850      0.00000
     99       9.1900      0.00000
    100       9.2935      0.00000
    101       9.3247      0.00000
    102       9.3247      0.00000
    103       9.3502      0.00000
    104       9.4172      0.00000
    105       9.4336      0.00000
    106       9.5196      0.00000
    107       9.5376      0.00000
    108       9.5376      0.00000
    109       9.5543      0.00000
    110       9.5543      0.00000
    111       9.6953      0.00000
    112       9.8964      0.00000
    113       9.8964      0.00000
    114       9.9220      0.00000
    115       9.9885      0.00000
    116      10.0494      0.00000
    117      10.0494      0.00000
    118      10.0554      0.00000
    119      10.1469      0.00000
    120      10.1469      0.00000
    121      10.2034      0.00000
    122      10.2082      0.00000
    123      10.2138      0.00000
    124      10.3381      0.00000
    125      10.3381      0.00000
    126      10.5799      0.00000
    127      10.6298      0.00000
    128      10.6980      0.00000
    129      10.6980      0.00000
    130      10.7276      0.00000
    131      10.7301      0.00000
    132      10.7594      0.00000
    133      10.7750      0.00000
    134      10.7849      0.00000
    135      10.7849      0.00000
    136      10.7883      0.00000
    137      10.7987      0.00000
    138      10.7987      0.00000
    139      10.8062      0.00000
    140      10.8534      0.00000
    141      10.8534      0.00000
    142      11.0080      0.00000
    143      11.0668      0.00000
    144      11.0956      0.00000
    145      11.1030      0.00000
    146      11.2026      0.00000
    147      11.2026      0.00000
    148      11.2914      0.00000
    149      11.2914      0.00000
    150      11.4935      0.00000
    151      11.5090      0.00000
    152      11.5103      0.00000

 k-point     2 :       0.5000    0.0000    0.0000
  band No.  band energies     occupation
      1     -29.1469      2.00000
      2     -13.9856      2.00000
      3     -11.5877      2.00000
      4     -11.5876      2.00000
      5      -8.9976      2.00000
      6      -2.0689      0.00000
      7      -2.0538      0.00000
      8       0.0427      0.00000
      9       0.2172      0.00000
     10       0.5720      0.00000
     11       0.7908      0.00000
     12       0.8007      0.00000
     13       0.8366      0.00000
     14       1.5270      0.00000
     15       1.6342      0.00000
     16       1.7335      0.00000
     17       1.7816      0.00000
     18       1.8049      0.00000
     19       2.1501      0.00000
     20       2.3309      0.00000
     21       2.3829      0.00000
     22       2.7142      0.00000
     23       2.7564      0.00000
     24       2.8879      0.00000
     25       2.8958      0.00000
     26       2.9088      0.00000
     27       2.9191      0.00000
     28       2.9290      0.00000
     29       2.9406      0.00000
     30       3.0494      0.00000
     31       3.2957      0.00000
     32       3.3686      0.00000
     33       3.4141      0.00000
     34       3.6543      0.00000
     35       3.7013      0.00000
     36       3.7510      0.00000
     37       3.7811      0.00000
     38       3.8247      0.00000
     39       3.8419      0.00000
     40       3.8772      0.00000
     41       3.9061      0.00000
     42       4.2375      0.00000
     43       4.5190      0.00000
     44       4.8894      0.00000
     45       4.9386      0.00000
     46       4.9964      0.00000
     47       5.0182      0.00000
     48       5.1051      0.00000
     49       5.2502      0.00000
     50       5.3652      0.00000
     51       5.3762      0.00000
     52       5.4420      0.00000
     53       5.4717      0.00000
     54       5.4884      0.00000
     55       5.5145      0.00000
     56       5.5614      0.00000
     57       5.5918      0.00000
     58       5.7186      0.00000
     59       5.7378      0.00000
     60       5.8132      0.00000
     61       5.8457      0.00000
     62       5.8805      0.00000
     63       5.9338      0.00000
     64       5.9708      0.00000
     65       6.2037      0.00000
     66       6.4979      0.00000
     67       6.6428      0.00000
     68       6.9921      0.00000
     69       7.0191      0.00000
     70       7.0479      0.00000
     71       7.0722      0.00000
     72       7.0810      0.00000
     73       7.0973      0.00000
     74       7.1099      0.00000
     75       7.1464      0.00000
     76       7.2966      0.00000
     77       7.4389      0.00000
     78       7.4626      0.00000
     79       7.4745      0.00000
     80       7.5083      0.00000
     81       7.5886      0.00000
     82       7.6227      0.00000
     83       7.7166      0.00000
     84       7.7281      0.00000
     85       7.8012      0.00000
     86       7.8366      0.00000
     87       7.8498      0.00000
     88       7.9626      0.00000
     89       7.9689      0.00000
     90       7.9714      0.00000
     91       7.9795      0.00000
     92       7.9851      0.00000
     93       8.0057      0.00000
     94       8.0348      0.00000
     95       8.1319      0.00000
     96       8.3826      0.00000
     97       8.4180      0.00000
     98       8.4674      0.00000
     99       8.5119      0.00000
    100       8.5822      0.00000
    101       8.6607      0.00000
    102       8.6961      0.00000
    103       8.9083      0.00000
    104       9.0179      0.00000
    105       9.0307      0.00000
    106       9.2172      0.00000
    107       9.2211      0.00000
    108       9.2291      0.00000
    109       9.2406      0.00000
    110       9.2520      0.00000
    111       9.2663      0.00000
    112       9.5036      0.00000
    113       9.5339      0.00000
    114       9.5560      0.00000
    115       9.5637      0.00000
    116       9.6144      0.00000
    117       9.6690      0.00000
    118       9.7202      0.00000
    119       9.7603      0.00000
    120       9.8181      0.00000
    121       9.8582      0.00000
    122       9.8888      0.00000
    123       9.9001      0.00000
    124       9.9407      0.00000
    125       9.9957      0.00000
    126      10.1596      0.00000
    127      10.1674      0.00000
    128      10.1808      0.00000
    129      10.1922      0.00000
    130      10.1955      0.00000
    131      10.1987      0.00000
    132      10.3991      0.00000
    133      10.4517      0.00000
    134      10.6093      0.00000
    135      10.7310      0.00000
    136      10.7587      0.00000
    137      10.7641      0.00000
    138      10.7962      0.00000
    139      10.9159      0.00000
    140      11.3516      0.00000
    141      11.3961      0.00000
    142      11.4577      0.00000
    143      11.6332      0.00000
    144      11.7075      0.00000
    145      11.7274      0.00000
    146      11.7274      0.00000
    147      11.7543      0.00000
    148      11.8201      0.00000
    149      11.8387      0.00000
    150      11.8947      0.00000
    151      11.9016      0.00000
    152      11.9132      0.00000

 k-point     3 :       0.5000    0.5000    0.0000
  band No.  band energies     occupation
      1     -29.1469      2.00000
      2     -13.9856      2.00000
      3     -11.5876      2.00000
      4     -11.5876      2.00000
      5      -8.9974      2.00000
      6      -2.0665      0.00000
      7      -2.0665      0.00000
      8       0.5441      0.00000
      9       0.5803      0.00000
     10       0.5803      0.00000
     11       0.8757      0.00000
     12       0.9645      0.00000
     13       1.2947      0.00000
     14       1.2947      0.00000
     15       1.3243      0.00000
     16       1.3288      0.00000
     17       1.3288      0.00000
     18       1.3490      0.00000
     19       1.4062      0.00000
     20       1.9769      0.00000
     21       2.1489      0.00000
     22       2.2042      0.00000
     23       2.2042      0.00000
     24       2.2720      0.00000
     25       2.2720      0.00000
     26       2.3292      0.00000
     27       2.3459      0.00000
     28       3.4114      0.00000
     29       3.7650      0.00000
     30       3.7699      0.00000
     31       3.8267      0.00000
     32       3.8267      0.00000
     33       3.8857      0.00000
     34       3.8857      0.00000
     35       3.9480      0.00000
     36       3.9858      0.00000
     37       4.4445      0.00000
     38       4.6083      0.00000
     39       4.6083      0.00000
     40       4.9378      0.00000
     41       4.9378      0.00000
     42       5.0908      0.00000
     43       5.2567      0.00000
     44       5.2908      0.00000
     45       5.3206      0.00000
     46       5.3553      0.00000
     47       5.3553      0.00000
     48       5.4919      0.00000
     49       5.4930      0.00000
     50       5.5108      0.00000
     51       5.5364      0.00000
     52       5.5364      0.00000
     53       5.5575      0.00000
     54       5.5575      0.00000
     55       5.5719      0.00000
     56       5.5839      0.00000
     57       5.5839      0.00000
     58       5.6076      0.00000
     59       5.6204      0.00000
     60       5.8962      0.00000
     61       6.0857      0.00000
     62       6.0857      0.00000
     63       6.0890      0.00000
     64       6.1858      0.00000
     65       6.1858      0.00000
     66       6.2497      0.00000
     67       6.2526      0.00000
     68       6.2548      0.00000
     69       6.2813      0.00000
     70       6.3495      0.00000
     71       6.3495      0.00000
     72       6.4016      0.00000
     73       6.4291      0.00000
     74       6.4464      0.00000
     75       6.4646      0.00000
     76       6.4646      0.00000
     77       6.5076      0.00000
     78       6.5076      0.00000
     79       6.5334      0.00000
     80       6.5334      0.00000
     81       6.5536      0.00000
     82       6.5618      0.00000
     83       7.0428      0.00000
     84       7.8495      0.00000
     85       7.8639      0.00000
     86       7.8718      0.00000
     87       7.8912      0.00000
     88       7.9144      0.00000
     89       7.9144      0.00000
     90       8.0065      0.00000
     91       8.0448      0.00000
     92       8.0448      0.00000
     93       8.1403      0.00000
     94       8.1441      0.00000
     95       8.1441      0.00000
     96       8.1606      0.00000
     97       8.1606      0.00000
     98       8.2035      0.00000
     99       8.2056      0.00000
    100       8.4612      0.00000
    101       8.6360      0.00000
    102       8.9122      0.00000
    103       8.9122      0.00000
    104       9.0448      0.00000
    105       9.1007      0.00000
    106       9.1007      0.00000
    107       9.1691      0.00000
    108       9.1691      0.00000
    109       9.2737      0.00000
    110       9.2763      0.00000
    111       9.5529      0.00000
    112       9.6232      0.00000
    113       9.6936      0.00000
    114       9.6936      0.00000
    115       9.6993      0.00000
    116       9.7145      0.00000
    117       9.7625      0.00000
    118       9.7625      0.00000
    119       9.8707      0.00000
    120      10.0950      0.00000
    121      10.1554      0.00000
    122      10.1759      0.00000
    123      10.1759      0.00000
    124      10.1763      0.00000
    125      10.2504      0.00000
    126      10.2708      0.00000
    127      10.3583      0.00000
    128      10.3583      0.00000
    129      10.4399      0.00000
    130      10.4399      0.00000
    131      10.4523      0.00000
    132      10.4523      0.00000
    133      10.5145      0.00000
    134      10.5180      0.00000
    135      10.5682      0.00000
    136      10.6159      0.00000
    137      10.6273      0.00000
    138      10.6332      0.00000
    139      10.6440      0.00000
    140      10.6440      0.00000
    141      10.7131      0.00000
    142      10.7131      0.00000
    143      10.9165      0.00000
    144      11.1562      0.00000
    145      11.7971      0.00000
    146      12.0588      0.00000
    147      12.1439      0.00000
    148      12.1569      0.00000
    149      12.1570      0.00000
    150      12.2470      0.00000
    151      12.2799      0.00000
    152      12.2843      0.00000


--------------------------------------------------------------------------------------------------------


 soft charge-density along one line, spin component           1
         0         1         2         3         4         5         6         7         8         9
 total charge-density along one line

 pseudopotential strength for first ion, spin component:           1
 10.443  13.894  -0.000   0.038  -0.000   0.000  -0.110   0.000
 13.894  18.483  -0.000   0.051  -0.000   0.000  -0.145   0.000
 -0.000  -0.000  -4.449   0.000  -0.000   8.698  -0.000   0.000
  0.038   0.051   0.000  -4.505   0.000  -0.000   8.790  -0.000
 -0.000  -0.000  -0.000   0.000  -4.449   0.000  -0.000   8.698
  0.000   0.000   8.698  -0.000   0.000 -19.146   0.000  -0.000
 -0.110  -0.145  -0.000   8.790  -0.000   0.000 -19.297   0.000
  0.000   0.000   0.000  -0.000   8.698  -0.000   0.000 -19.146
 total augmentation occupancy for first ion, spin component:           1
  7.676  -3.500   0.000   2.088   0.000   0.000   0.388  -0.000
 -3.500   1.973   0.000  -1.600   0.000   0.000  -0.237  -0.000
  0.000   0.000   0.821   0.000   0.000   0.062   0.000   0.000
  2.088  -1.600   0.000   2.224   0.000   0.000   0.212   0.000
  0.000   0.000   0.000   0.000   0.821   0.000   0.000   0.062
  0.000   0.000   0.062   0.000   0.000   0.005  -0.000   0.000
  0.388  -0.237   0.000   0.212   0.000  -0.000   0.029   0.000
 -0.000   0.000   0.000   0.000   0.062   0.000   0.000   0.005


------------------------ aborting loop because EDIFF is reached ----------------------------------------


    FORLOC:  cpu time      0.0004: real time      0.0004
    FORNL :  cpu time      0.0053: real time      0.0053
    STRESS:  cpu time      0.1508: real time      0.1516
    FORCOR:  cpu time      0.0478: real time      0.0480
    OFIELD:  cpu time      0.0001: real time      0.0001
    FORVDW:  cpu time      0.0006: real time      0.0006

  FORCE on cell =-STRESS in cart. coord.  units (eV):
  Direction    XX          YY          ZZ          XY          YZ          ZX
  --------------------------------------------------------------------------------------
  Alpha Z     0.28751     0.28751     0.28751
  Ewald      56.20538    56.20538    80.47363     0.00000     0.00000     0.00000
  Hartree   279.91012   279.91012   114.92522    -0.00000    -0.00000    -0.00000
  E(xc)     -44.33356   -44.33356   -42.91249    -0.00000     0.00000     0.00000
  Local    -471.33372  -471.33372  -304.77837    -0.00000    -0.00000    -0.00000
  n-local   -17.57159   -17.57176   -28.83464    -0.00000    -0.00000     0.00000
  augment     6.19934     6.19934     5.73890     0.00000     0.00000     0.00000
  Kinetic   190.57322   190.57300   174.99390    -0.00000     0.00000    -0.00000
  Fock        0.00000     0.00000     0.00000     0.00000     0.00000     0.00000
  vdW        -0.00081    -0.00081    -0.00024     0.00000    -0.00000    -0.00000
  -------------------------------------------------------------------------------------
  Total      -0.06431    -0.06431    -0.10659     0.00000     0.00000     0.00000
  in kB      -0.06780    -0.06780    -0.11237     0.00000     0.00000     0.00000
  external pressure =       -0.08 kB  Pullay stress =        0.00 kB


 VOLUME and BASIS-vectors are now :
 -----------------------------------------------------------------------------
  energy-cutoff  :      600.00
  volume of cell :     1519.82
      direct lattice vectors                 reciprocal lattice vectors
     8.440984654  0.000000000  0.000000000     0.118469591  0.000000000  0.000000000
     0.000000000  8.440984654  0.000000000     0.000000000  0.118469591  0.000000000
     0.000000000  0.000000000 21.330738491     0.000000000  0.000000000  0.046880702

  length of vectors
     8.440984654  8.440984654 21.330738491     0.118469591  0.118469591  0.046880702


 FORCES acting on ions:
    Electron-Ion                     Ewald-Force                    Non-Local-Force
 -----------------------------------------------------------------------------------------------
   0.804E-13 0.300E-12 0.238E+03   -.956E-16 0.260E-16 -.265E+03   -.123E-24 -.739E-25 0.278E+02
   0.357E-12 0.740E-12 -.207E+03   0.214E-15 -.398E-17 0.265E+03   0.153E-24 -.263E-25 -.589E+02
 -----------------------------------------------------------------------------------------------
   0.437E-12 0.104E-11 0.311E+02   0.118E-15 0.220E-16 0.000E+00   0.300E-25 -.100E-24 -.311E+02


 POSITION                                       TOTAL-FORCE (eV/Angst)
 -----------------------------------------------------------------------------------
      4.22049      4.22049     16.31916         0.000000     -0.000000      0.027287
      4.22049      4.22049     17.46598        -0.000000      0.000000     -0.027287
 -----------------------------------------------------------------------------------
    total drift:                                0.000000      0.000000     -0.000689


--------------------------------------------------------------------------------------------------------



  FREE ENERGIE OF THE ION-ELECTRON SYSTEM (eV)
  ---------------------------------------------------
  free  energy   TOTEN  =       -14.54861245 eV

  energy  without entropy=      -14.54861245  energy(sigma->0) =      -14.54861245



--------------------------------------------------------------------------------------------------------


    POTLOK:  cpu time      0.0874: real time      0.0876


--------------------------------------------------------------------------------------------------------


     LOOP+:  cpu time     13.9948: real time     14.0576
    4ORBIT:  cpu time      0.0000: real time      0.0000

 total amount of memory used by VASP MPI-rank0    79451. kBytes
=======================================================================

   base      :      30000. kBytes
   nonl-proj :      10622. kBytes
   fftplans  :      14615. kBytes
   grid      :      20512. kBytes
   one-center:          3. kBytes
   wavefun   :       3699. kBytes



 General timing and accounting informations for this job:
 ========================================================

                  Total CPU time used (sec):       15.805
                            User time (sec):       15.531
                          System time (sec):        0.273
                         Elapsed time (sec):       16.522

                   Maximum memory used (kb):      308408.
                   Average memory used (kb):          N/A

                          Minor page faults:        38279
                          Major page faults:          108
                 Voluntary context switches:         1822
