 vasp.6.3.0 20Jan22 (build Apr  1 2022 16:44:48) gamma-only
 executed on        HPECrayEX_GCC date 2023.01.23  22:04:55
 running  512 mpi-ranks, with    1 threads/rank
 distrk:  each k-point on  512 cores,    1 groups
 distr:  one band on NCORE=   8 cores,   64 groups


--------------------------------------------------------------------------------------------------------


 INCAR:
   SYSTEM = MgO-rocksalt
   ISMEAR = 0
   SIGMA = 0.05
   EDIFF = 1E-8
   ALGO = ALL
   ISTART = 0
   IBRION = 5
   POTIM = 0.01
   NFREE = 2
   ISYM = 0
   DIPOL = 0.5 0.5 0.5
   IDIPOL = 4
   LDIPOL = .TRUE.
   GGA = RE
   IVDW = 13
   VDW_S8 = 1.7468
   VDW_A1 = 0.5363
   VDW_A2 = 3.0726
   ENCUT = 600
   PREC = Accurate
   LASPH = .TRUE.
   LREAL = .FALSE.
   ISPIN = 1
   NELM = 200
   NELMIN = 8
   NCORE = 8
   KPAR = 1
   LWAVE = .FALSE.
   LCHARG = .FALSE.

 POTCAR:    PAW_PBE C 08Apr2002
 POTCAR:    PAW_PBE O 08Apr2002
 POTCAR:    PAW_PBE C 08Apr2002
   SHA256 =  253f7b50bb8d59471dbedb8285d89021f4a42ed1a2c5d38a03a736e69125dd95 C/POTCAR
   COPYR  = (c) Copyright 08Apr2002 Georg Kresse
   COPYR  = This file is part of the software VASP. Any use, copying, and all other rights are regul
   COPYR  = If you do not have a valid VASP license, you may not use, copy or distribute this file.
   VRHFIN =C: s2p2
   LEXCH  = PE
   EATOM  =   147.1560 eV,   10.8157 Ry

   TITEL  = PAW_PBE C 08Apr2002
   LULTRA =        F    use ultrasoft PP ?
   IUNSCR =        1    unscreen: 0-lin 1-nonlin 2-no
   RPACOR =    1.200    partial core radius
   POMASS =   12.011; ZVAL   =    4.000    mass and valenz
   RCORE  =    1.500    outmost cutoff radius
   RWIGS  =    1.630; RWIGS  =    0.863    wigner-seitz radius (au A)
   ENMAX  =  400.000; ENMIN  =  300.000 eV
   ICORE  =        2    local potential
   LCOR   =        T    correct aug charges
   LPAW   =        T    paw PP
   EAUG   =  644.873
   DEXC   =    0.000
   RMAX   =    1.529    core radius for proj-oper
   RAUG   =    1.300    factor for augmentation sphere
   RDEP   =    1.501    radius for radial grids
   RDEPT  =    1.300    core radius for aug-charge

   Atomic configuration
    4 entries
     n  l   j            E        occ.
     1  0  0.50      -273.3789   2.0000
     2  0  0.50       -13.7508   2.0000
     2  1  0.50        -5.2854   2.0000
     3  2  1.50        -5.4423   0.0000
   Description
     l       E           TYP  RCUT    TYP  RCUT
     0    -13.7508458     23  1.200
     0     -8.2022199     23  1.200
     1     -5.2854383     23  1.500
     1     34.0145650     23  1.500
     2     -5.4423304      7  1.500
  local pseudopotential read in
  partial core-charges read in
  partial kinetic energy density read in
  atomic valenz-charges read in
  non local Contribution for L=           0  read in
    real space projection operators read in
  non local Contribution for L=           0  read in
    real space projection operators read in
  non local Contribution for L=           1  read in
    real space projection operators read in
  non local Contribution for L=           1  read in
    real space projection operators read in
    PAW grid and wavefunctions read in

   number of l-projection  operators is LMAX  =           4
   number of lm-projection operators is LMMAX =           8

 POTCAR:    PAW_PBE O 08Apr2002
   SHA256 =  818f92134a0a090dccd8ba1447fa70422a3b330e708bb4f08108d8ae51209ddf O/POTCAR
   COPYR  = (c) Copyright 08Apr2002 Georg Kresse
   COPYR  = This file is part of the software VASP. Any use, copying, and all other rights are regul
   COPYR  = If you do not have a valid VASP license, you may not use, copy or distribute this file.
   VRHFIN =O: s2p4
   LEXCH  = PE
   EATOM  =   432.3788 eV,   31.7789 Ry

   TITEL  = PAW_PBE O 08Apr2002
   LULTRA =        F    use ultrasoft PP ?
   IUNSCR =        1    unscreen: 0-lin 1-nonlin 2-no
   RPACOR =    1.200    partial core radius
   POMASS =   16.000; ZVAL   =    6.000    mass and valenz
   RCORE  =    1.520    outmost cutoff radius
   RWIGS  =    1.550; RWIGS  =    0.820    wigner-seitz radius (au A)
   ENMAX  =  400.000; ENMIN  =  300.000 eV
   ICORE  =        2    local potential
   LCOR   =        T    correct aug charges
   LPAW   =        T    paw PP
   EAUG   =  605.392
   DEXC   =    0.000
   RMAX   =    1.553    core radius for proj-oper
   RAUG   =    1.300    factor for augmentation sphere
   RDEP   =    1.550    radius for radial grids
   RDEPT  =    1.329    core radius for aug-charge

   Atomic configuration
    4 entries
     n  l   j            E        occ.
     1  0  0.50      -514.6923   2.0000
     2  0  0.50       -23.9615   2.0000
     2  1  0.50        -9.0305   4.0000
     3  2  1.50        -9.5241   0.0000
   Description
     l       E           TYP  RCUT    TYP  RCUT
     0    -23.9615318     23  1.200
     0     -9.5240782     23  1.200
     1     -9.0304911     23  1.520
     1      8.1634956     23  1.520
     2     -9.5240782      7  1.500
  local pseudopotential read in
  partial core-charges read in
  partial kinetic energy density read in
  kinetic energy density of atom read in
  atomic valenz-charges read in
  non local Contribution for L=           0  read in
    real space projection operators read in
  non local Contribution for L=           0  read in
    real space projection operators read in
  non local Contribution for L=           1  read in
    real space projection operators read in
  non local Contribution for L=           1  read in
    real space projection operators read in
    PAW grid and wavefunctions read in

   number of l-projection  operators is LMAX  =           4
   number of lm-projection operators is LMMAX =           8

 -----------------------------------------------------------------------------
|                                                                             |
|               ----> ADVICE to this user running VASP <----                  |
|                                                                             |
|     You enforced a specific xc type in the INCAR file but a different       |
|     type was found in the POTCAR file.                                      |
|     I HOPE YOU KNOW WHAT YOU ARE DOING!                                     |
|                                                                             |
 -----------------------------------------------------------------------------

  PAW_PBE C 08Apr2002                   :
 energy of atom  1       EATOM= -147.1560
 kinetic energy error for atom=    0.0057 (will be added to EATOM!!)
  PAW_PBE O 08Apr2002                   :
 energy of atom  2       EATOM= -432.3788
 kinetic energy error for atom=    0.0168 (will be added to EATOM!!)


 POSCAR:  C  O
  positions in direct lattice
  No initial velocities read in
 -----------------------------------------------------------------------------
|                                                                             |
|           W    W    AA    RRRRR   N    N  II  N    N   GGGG   !!!           |
|           W    W   A  A   R    R  NN   N  II  NN   N  G    G  !!!           |
|           W    W  A    A  R    R  N N  N  II  N N  N  G       !!!           |
|           W WW W  AAAAAA  RRRRR   N  N N  II  N  N N  G  GGG   !            |
|           WW  WW  A    A  R   R   N   NN  II  N   NN  G    G                |
|           W    W  A    A  R    R  N    N  II  N    N   GGGG   !!!           |
|                                                                             |
|     Specifying the vdW parameters                                           |
|     VDW_S8 = 1.747                                                          |
|     VDW_A1 = 0.536                                                          |
|     VDW_A2 = 3.073                                                          |
|     in the INCAR file will overwrite the defaults for revpbe. Please        |
|     make sure that is what you intended.                                    |
|                                                                             |
 -----------------------------------------------------------------------------

 exchange correlation table for  LEXCH =       40
   RHO(1)=    0.500       N(1)  =     2000
   RHO(2)=  100.500       N(2)  =     4000



--------------------------------------------------------------------------------------------------------


 ion  position               nearest neighbor table
   1  0.500  0.500  0.473-   2 1.15
   2  0.500  0.500  0.527-   1 1.15


IMPORTANT INFORMATION: All symmetrisations will be switched off!
NOSYMM: (Re-)initialisation of all symmetry stuff for point group C_1.


----------------------------------------------------------------------------------------

                                     Primitive cell

  volume of cell :    8450.5313

  direct lattice vectors                    reciprocal lattice vectors
    20.000000000  0.000000000  0.000000000     0.050000000  0.000000000  0.000000000
     0.000000000 20.000000000  0.000000000     0.000000000  0.050000000  0.000000000
     0.000000000  0.000000000 21.126328287     0.000000000  0.000000000  0.047334302

  length of vectors
    20.000000000 20.000000000 21.126328287     0.050000000  0.050000000  0.047334302

  position of ions in fractional coordinates (direct lattice)
     0.500000000  0.500000000  0.472863354
     0.500000000  0.500000000  0.527136646

  ion indices of the primitive-cell ions
   primitive index   ion index
                 1           1
                 2           2

----------------------------------------------------------------------------------------



 KPOINTS: pymatgen v2020.8.13 with grid density =

Automatic generation of k-mesh.
 Grid dimensions read from file:
 generate k-points for:    1    1    1

 Generating k-lattice:

  Cartesian coordinates                     Fractional coordinates (reciprocal lattice)
     0.050000000  0.000000000  0.000000000     1.000000000  0.000000000  0.000000000
     0.000000000  0.050000000  0.000000000     0.000000000  1.000000000  0.000000000
     0.000000000  0.000000000  0.047334302     0.000000000  0.000000000  1.000000000

  Length of vectors
     0.050000000  0.050000000  0.047334302

  Shift w.r.t. Gamma in fractional coordinates (k-lattice)
     0.000000000  0.000000000  0.000000000


 Subroutine IBZKPT returns following result:
 ===========================================

 Found      1 irreducible k-points:

 Following reciprocal coordinates:
            Coordinates               Weight
  0.000000  0.000000  0.000000      1.000000

 Following cartesian coordinates:
            Coordinates               Weight
  0.000000  0.000000  0.000000      1.000000


 Subroutine IBZKPT_HF returns following result:
 ==============================================

 Found      1 k-points in 1st BZ
 the following      1 k-points will be used (e.g. in the exchange kernel)
 Following reciprocal coordinates:   # in IRBZ
  0.000000  0.000000  0.000000    1.00000000   1 t-inv F


--------------------------------------------------------------------------------------------------------




 Dimension of arrays:
   k-points           NKPTS =      1   k-points in BZ     NKDIM =      1   number of bands    NBANDS=     64
   number of dos      NEDOS =    301   number of ions     NIONS =      2
   non local maximal  LDIM  =      4   non local SUM 2l+1 LMDIM =      8
   total plane-waves  NPLWV = ******
   max r-space proj   IRMAX =      1   max aug-charges    IRDMAX=   7273
   dimension x,y,z NGX =   160 NGY =  160 NGZ =  180
   dimension x,y,z NGXF=   320 NGYF=  320 NGZF=  360
   support grid    NGXF=   320 NGYF=  320 NGZF=  360
   ions per type =               1   1
   NGX,Y,Z   is equivalent  to a cutoff of  13.30, 13.30, 14.16 a.u.
   NGXF,Y,Z  is equivalent  to a cutoff of  26.60, 26.60, 28.33 a.u.

 SYSTEM =  MgO-rocksalt
 POSCAR =   C  O

 Startparameter for this run:
   NWRITE =      2    write-flag & timer
   PREC   = accura    normal or accurate (medium, high low for compatibility)
   ISTART =      0    job   : 0-new  1-cont  2-samecut
   ICHARG =      2    charge: 1-file 2-atom 10-const
   ISPIN  =      1    spin polarized calculation?
   LNONCOLLINEAR =      F non collinear calculations
   LSORBIT =      F    spin-orbit coupling
   INIWAV =      1    electr: 0-lowe 1-rand  2-diag
   LASPH  =      T    aspherical Exc in radial PAW
 Electronic Relaxation 1
   ENCUT  =  600.0 eV  44.10 Ry    6.64 a.u.  39.94 39.94 42.19*2*pi/ulx,y,z
   ENINI  =  600.0     initial cutoff
   ENAUG  =  644.9 eV  augmentation charge cutoff
   NELM   =    200;   NELMIN=  8; NELMDL= -5     # of ELM steps
   EDIFF  = 0.1E-07   stopping-criterion for ELM
   LREAL  =      F    real-space projection
   NLSPLINE    = F    spline interpolate recip. space projectors
   LCOMPAT=      F    compatible to vasp.4.4
   GGA_COMPAT  = T    GGA compatible to vasp.4.4-vasp.4.6
   LMAXPAW     = -100 max onsite density
   LMAXMIX     =    2 max onsite mixed and CHGCAR
   VOSKOWN=      0    Vosko Wilk Nusair interpolation
   ROPT   =    0.00000   0.00000
 Ionic relaxation
   EDIFFG = 0.1E-06   stopping-criterion for IOM
   NSW    =     61    number of steps for IOM
   NBLOCK =      1;   KBLOCK =     61    inner block; outer block
   IBRION =      5    ionic relax: 0-MD 1-quasi-New 2-CG
   NFREE  =      2    steps in history (QN), initial steepest desc. (CG)
   ISIF   =      2    stress and relaxation
   IWAVPR =     11    prediction:  0-non 1-charg 2-wave 3-comb
   ISYM   =      0    0-nonsym 1-usesym 2-fastsym
   LCORR  =      T    Harris-Foulkes like correction to forces

   POTIM  = 0.0100    time-step for ionic-motion
   TEIN   =    0.0    initial temperature
   TEBEG  =    0.0;   TEEND  =   0.0 temperature during run
   SMASS  =  -3.00    Nose mass-parameter (am)
   estimated Nose-frequenzy (Omega)   =  0.10E-29 period in steps = 0.63E+48 mass=  -0.914E-26a.u.
   SCALEE = 1.0000    scale energy and forces
   NPACO  =    256;   APACO  = 10.0  distance and # of slots for P.C.
   PSTRESS=    0.0 pullay stress

  Mass of Ions in am
   POMASS =  12.01 16.00
  Ionic Valenz
   ZVAL   =   4.00  6.00
  Atomic Wigner-Seitz radii
   RWIGS  =  -1.00 -1.00
  virtual crystal weights
   VCA    =   1.00  1.00
   NELECT =      10.0000    total number of electrons
   NUPDOWN=      -1.0000    fix difference up-down

 DOS related values:
   EMIN   =  10.00;   EMAX   =-10.00  energy-range for DOS
   EFERMI =   0.00
   ISMEAR =     0;   SIGMA  =   0.05  broadening in eV -4-tet -1-fermi 0-gaus

 Electronic relaxation 2 (details)
   IALGO  =     58    algorithm
   LDIAG  =      T    sub-space diagonalisation (order eigenvalues)
   LSUBROT=      F    optimize rotation matrix (better conditioning)
   TURBO    =      0    0=normal 1=particle mesh
   IRESTART =      0    0=no restart 2=restart with 2 vectors
   NREBOOT  =      0    no. of reboots
   NMIN     =      0    reboot dimension
   EREF     =   0.00    reference energy to select bands
   IMIX   =      4    mixing-type and parameters
     AMIX     =   0.40;   BMIX     =  1.00
     AMIX_MAG =   1.60;   BMIX_MAG =  1.00
     AMIN     =   0.10
     WC   =   100.;   INIMIX=   1;  MIXPRE=   1;  MAXMIX= -45

 Intra band minimization:
   WEIMIN = 0.0010     energy-eigenvalue tresh-hold
   EBREAK =  0.39E-10  absolut break condition
   DEPER  =   0.30     relativ break condition

   TIME   =   0.40     timestep for ELM

  volume/ion in A,a.u.               =    4225.27     28513.50
  Fermi-wavevector in a.u.,A,eV,Ry     =   0.173160  0.327224  0.407961  0.029984
  Thomas-Fermi vector in A             =   0.887314

 Write flags
   LWAVE        =      F    write WAVECAR
   LDOWNSAMPLE  =      F    k-point downsampling of WAVECAR
   LCHARG       =      F    write CHGCAR
   LVTOT        =      F    write LOCPOT, total local potential
   LVHAR        =      F    write LOCPOT, Hartree potential only
   LELF         =      F    write electronic localiz. function (ELF)
   LORBIT       =      0    0 simple, 1 ext, 2 COOP (PROOUT), +10 PAW based schemes


 Dipole corrections
   LMONO  =      F    monopole corrections only (constant potential shift)
   LDIPOL =      T    correct potential (dipole corrections)
   IDIPOL =      4    1-x, 2-y, 3-z, 4-all directions
   EPSILON=  1.0000000 bulk dielectric constant

 Exchange correlation treatment:
   GGA     =    RE    GGA type
   LEXCH   =    40    internal setting for exchange type
   LIBXC   =     F    Libxc
   VOSKOWN =     0    Vosko Wilk Nusair interpolation
   LHFCALC =     F    Hartree Fock is set to
   LHFONE  =     F    Hartree Fock one center treatment
   AEXX    =    0.0000 exact exchange contribution

 Linear response parameters
   LEPSILON=     F    determine dielectric tensor
   LRPA    =     F    only Hartree local field effects (RPA)
   LNABLA  =     F    use nabla operator in PAW spheres
   LVEL    =     F    velocity operator in full k-point grid
   CSHIFT  =0.1000    complex shift for real part using Kramers Kronig
   OMEGAMAX=  -1.0    maximum frequency
   DEG_THRESHOLD= 0.2000000E-02 threshold for treating states as degnerate
   RTIME   =   -0.100 relaxation time in fs
  (WPLASMAI=    0.000 imaginary part of plasma frequency in eV, 0.658/RTIME)
   DFIELD  = 0.0000000 0.0000000 0.0000000 field for delta impulse in time

  Optional k-point grid parameters
   LKPOINTS_OPT  =     F    use optional k-point grid
   KPOINTS_OPT_MODE=     1    mode for optional k-point grid

 Orbital magnetization related:
   ORBITALMAG=     F  switch on orbital magnetization
   LCHIMAG   =     F  perturbation theory with respect to B field
   DQ        =  0.001000  dq finite difference perturbation B field
   LLRAUG    =     F  two centre corrections for induced B field



--------------------------------------------------------------------------------------------------------


 finite differences
 charge density and potential will be updated during run
 non-spin polarized calculation
 Conjugate gradient for all bands (Freysoldt, et al. PRB 79, 241103 (2009))
 preconditioned conjugated gradient
 perform sub-space diagonalisation
    before iterative eigenvector-optimisation
 modified Broyden-mixing scheme, WC =      100.0
 initial mixing is a Kerker type mixing with AMIX =  0.4000 and BMIX =      1.0000
 Hartree-type preconditioning will be used
 using additional bands           59
 reciprocal scheme for non local part
 use partial core corrections
 no Harris-corrections to forces
 use gradient corrections
 use of overlap-Matrix (Vanderbilt PP)
 Gauss-broadening in eV      SIGMA  =   0.05


--------------------------------------------------------------------------------------------------------


  energy-cutoff  :      600.00
  volume of cell :     8450.53
      direct lattice vectors                 reciprocal lattice vectors
    20.000000000  0.000000000  0.000000000     0.050000000  0.000000000  0.000000000
     0.000000000 20.000000000  0.000000000     0.000000000  0.050000000  0.000000000
     0.000000000  0.000000000 21.126328287     0.000000000  0.000000000  0.047334302

  length of vectors
    20.000000000 20.000000000 21.126328287     0.050000000  0.050000000  0.047334302



 k-points in units of 2pi/SCALE and weight: pymatgen v2020.8.13 with grid density =
   0.00000000  0.00000000  0.00000000       1.000

 k-points in reciprocal lattice and weights: pymatgen v2020.8.13 with grid density =
   0.00000000  0.00000000  0.00000000       1.000

 position of ions in fractional coordinates (direct lattice)
   0.50000000  0.50000000  0.47286335
   0.50000000  0.50000000  0.52713665

 position of ions in cartesian coordinates  (Angst):
  10.00000000 10.00000000  9.98986645
  10.00000000 10.00000000 11.13646183



--------------------------------------------------------------------------------------------------------


 use parallel FFT for orbitals z direction half grid
 k-point   1 :   0.0000 0.0000 0.0000  plane waves:  140949

 maximum and minimum number of plane-waves per node :     17623    17611

 maximum number of plane-waves:    140949
 maximum index in each direction:
   IXMAX=   39   IYMAX=   39   IZMAX=   42
   IXMIN=  -39   IYMIN=  -39   IZMIN=    0


 parallel 3D FFT for wavefunctions:
    minimum data exchange during FFTs selected (reduces bandwidth)
 parallel 3D FFT for charge:
    minimum data exchange during FFTs selected (reduces bandwidth)


 total amount of memory used by VASP MPI-rank0    79043. kBytes
=======================================================================

   base      :      30000. kBytes
   nonl-proj :       2826. kBytes
   fftplans  :      15799. kBytes
   grid      :      29568. kBytes
   one-center:          1. kBytes
   wavefun   :        849. kBytes

     INWAV:  cpu time      0.0001: real time      0.0003
 Broyden mixing: mesh for mixing (old mesh)
   NGX = 79   NGY = 79   NGZ = 85
  (NGX  =320   NGY  =320   NGZ  =360)
  gives a total of 530485 points

 initial charge density was supplied:
 charge density of overlapping atoms calculated
 number of electron      10.0000000 magnetization
 keeping initial charge density in first step


--------------------------------------------------------------------------------------------------------


 Maximum index for augmentation-charges            0 (set IRDMAX)


--------------------------------------------------------------------------------------------------------


 First call to EWALD:  gamma=   0.087
 Maximum number of real-space cells 3x 3x 3
 Maximum number of reciprocal cells 3x 3x 3

    FEWALD:  cpu time      0.0009: real time      0.0009


--------------------------------------- Iteration      1(   1)  ---------------------------------------


    POTLOK:  cpu time      0.1487: real time      0.1492
    SETDIJ:  cpu time      0.0756: real time      0.0757
    TRIAL :  cpu time      0.2381: real time      0.2384
    CORREC:  cpu time      0.0010: real time      0.0010
    --------------------------------------------
      LOOP:  cpu time      0.4642: real time      0.5055

 eigenvalue-minimisations  :   192
 total energy-change (2. order) : 0.8756778E+02  (-0.2617192E+03)
 number of electron      10.0000000 magnetization
 augmentation part       10.0000000 magnetization

 DIPCOR: dipole corrections for dipol
 direction  1 min pos     1, direction  2 min pos     1, direction  3 min pos     1,
 dipolmoment          -0.000000     -0.000000      0.000002 electrons x Angstroem
 Tr[quadrupol]         5.891515

 energy correction for charged system         0.000000 eV
 dipol+quadrupol energy correction           -0.000000 eV
 added-field ion interaction         -0.000000 eV  (added to PSCEN)


 Free energy of the ion-electron system (eV)
  ---------------------------------------------------
  alpha Z        PSCENC =         0.05170769
  Ewald energy   TEWEN  =       201.31390948
  -Hartree energ DENC   =      -661.28865694
  -exchange      EXHF   =         0.00000000
  -V(xc)+E(xc)   XCENC  =        38.80324751
  PAW double counting   =       455.56453932     -457.22430280
  entropy T*S    EENTRO =        -0.02567484
  eigenvalues    EBANDS =       -68.76134929
  atomic energy  EATOM  =       579.13436270
  ---------------------------------------------------
  free energy    TOTEN  =        87.56778280 eV

  energy without entropy =       87.59345764  energy(sigma->0) =       87.58062022


--------------------------------------------------------------------------------------------------------




--------------------------------------- Iteration      1(   2)  ---------------------------------------


    TRIAL :  cpu time      0.3477: real time      0.3477
    CORREC:  cpu time      0.0002: real time      0.0002
    --------------------------------------------
      LOOP:  cpu time      0.3535: real time      0.3630

 eigenvalue-minimisations  :   256
 total energy-change (2. order) :-0.1003768E+03  (-0.9889746E+02)
 number of electron      10.0000000 magnetization
 augmentation part       10.0000000 magnetization

 DIPCOR: dipole corrections for dipol
 direction  1 min pos     1, direction  2 min pos     1, direction  3 min pos     1,
 dipolmoment          -0.000000     -0.000000      0.000002 electrons x Angstroem
 Tr[quadrupol]         5.891515

 energy correction for charged system         0.000000 eV
 dipol+quadrupol energy correction           -0.000000 eV
 added-field ion interaction         -0.000000 eV  (added to PSCEN)


 Free energy of the ion-electron system (eV)
  ---------------------------------------------------
  alpha Z        PSCENC =         0.05170769
  Ewald energy   TEWEN  =       201.31390948
  -Hartree energ DENC   =      -661.28865694
  -exchange      EXHF   =         0.00000000
  -V(xc)+E(xc)   XCENC  =        38.80324751
  PAW double counting   =       455.56453932     -457.22430280
  entropy T*S    EENTRO =        -0.00000000
  eigenvalues    EBANDS =      -169.16379658
  atomic energy  EATOM  =       579.13436270
  ---------------------------------------------------
  free energy    TOTEN  =       -12.80898964 eV

  energy without entropy =      -12.80898964  energy(sigma->0) =      -12.80898964


--------------------------------------------------------------------------------------------------------




--------------------------------------- Iteration      1(   3)  ---------------------------------------


    TRIAL :  cpu time      0.1421: real time      0.1421
    CORREC:  cpu time      0.0002: real time      0.0002
    --------------------------------------------
      LOOP:  cpu time      0.1466: real time      0.1566

 eigenvalue-minimisations  :   128
 total energy-change (2. order) :-0.2463129E+01  (-0.2463129E+01)
 number of electron      10.0000000 magnetization
 augmentation part       10.0000000 magnetization

 DIPCOR: dipole corrections for dipol
 direction  1 min pos     1, direction  2 min pos     1, direction  3 min pos     1,
 dipolmoment          -0.000000     -0.000000      0.000002 electrons x Angstroem
 Tr[quadrupol]         5.891515

 energy correction for charged system         0.000000 eV
 dipol+quadrupol energy correction           -0.000000 eV
 added-field ion interaction         -0.000000 eV  (added to PSCEN)


 Free energy of the ion-electron system (eV)
  ---------------------------------------------------
  alpha Z        PSCENC =         0.05170769
  Ewald energy   TEWEN  =       201.31390948
  -Hartree energ DENC   =      -661.28865694
  -exchange      EXHF   =         0.00000000
  -V(xc)+E(xc)   XCENC  =        38.80324751
  PAW double counting   =       455.56453932     -457.22430280
  entropy T*S    EENTRO =        -0.00000000
  eigenvalues    EBANDS =      -171.62692607
  atomic energy  EATOM  =       579.13436270
  ---------------------------------------------------
  free energy    TOTEN  =       -15.27211913 eV

  energy without entropy =      -15.27211913  energy(sigma->0) =      -15.27211913


--------------------------------------------------------------------------------------------------------




--------------------------------------- Iteration      1(   4)  ---------------------------------------


    TRIAL :  cpu time      0.2211: real time      0.2211
    CORREC:  cpu time      0.0002: real time      0.0002
    --------------------------------------------
      LOOP:  cpu time      0.2357: real time      0.2357

 eigenvalue-minimisations  :   192
 total energy-change (2. order) :-0.1280136E-01  (-0.1280136E-01)
 number of electron      10.0000000 magnetization
 augmentation part       10.0000000 magnetization

 DIPCOR: dipole corrections for dipol
 direction  1 min pos     1, direction  2 min pos     1, direction  3 min pos     1,
 dipolmoment          -0.000000     -0.000000      0.000002 electrons x Angstroem
 Tr[quadrupol]         5.891515

 energy correction for charged system         0.000000 eV
 dipol+quadrupol energy correction           -0.000000 eV
 added-field ion interaction         -0.000000 eV  (added to PSCEN)


 Free energy of the ion-electron system (eV)
  ---------------------------------------------------
  alpha Z        PSCENC =         0.05170769
  Ewald energy   TEWEN  =       201.31390948
  -Hartree energ DENC   =      -661.28865694
  -exchange      EXHF   =         0.00000000
  -V(xc)+E(xc)   XCENC  =        38.80324751
  PAW double counting   =       455.56453932     -457.22430280
  entropy T*S    EENTRO =        -0.00000000
  eigenvalues    EBANDS =      -171.63972743
  atomic energy  EATOM  =       579.13436270
  ---------------------------------------------------
  free energy    TOTEN  =       -15.28492049 eV

  energy without entropy =      -15.28492049  energy(sigma->0) =      -15.28492049


--------------------------------------------------------------------------------------------------------




--------------------------------------- Iteration      1(   5)  ---------------------------------------


    TRIAL :  cpu time      0.1410: real time      0.1411
    CORREC:  cpu time      0.0002: real time      0.0002
    CHARGE:  cpu time      0.0605: real time      0.0611
    --------------------------------------------
      LOOP:  cpu time      0.2158: real time      0.2167

 eigenvalue-minimisations  :   128
 total energy-change (2. order) :-0.3695959E-05  (-0.3695982E-05)
 number of electron       9.9999999 magnetization
 augmentation part        0.7241639 magnetization

 DIPCOR: dipole corrections for dipol
 direction  1 min pos     1, direction  2 min pos     1, direction  3 min pos     1,
 dipolmoment          -0.000000     -0.000000      0.000002 electrons x Angstroem
 Tr[quadrupol]         5.891515

 energy correction for charged system         0.000000 eV
 dipol+quadrupol energy correction           -0.000000 eV
 added-field ion interaction         -0.000000 eV  (added to PSCEN)


 Free energy of the ion-electron system (eV)
  ---------------------------------------------------
  alpha Z        PSCENC =         0.05170769
  Ewald energy   TEWEN  =       201.31390948
  -Hartree energ DENC   =      -661.28865694
  -exchange      EXHF   =         0.00000000
  -V(xc)+E(xc)   XCENC  =        38.80324751
  PAW double counting   =       455.56453932     -457.22430280
  entropy T*S    EENTRO =        -0.00000000
  eigenvalues    EBANDS =      -171.63973112
  atomic energy  EATOM  =       579.13436270
  ---------------------------------------------------
  free energy    TOTEN  =       -15.28492418 eV

  energy without entropy =      -15.28492418  energy(sigma->0) =      -15.28492418


--------------------------------------------------------------------------------------------------------




--------------------------------------- Iteration      1(   6)  ---------------------------------------


    POTLOK:  cpu time      0.1341: real time      0.1341
    SETDIJ:  cpu time      0.0757: real time      0.0757
    TRIAL :  cpu time      6.4974: real time      6.4987
    CORREC:  cpu time      0.3060: real time      0.3068
    CHARGE:  cpu time      0.0430: real time      0.0430
    --------------------------------------------
      LOOP:  cpu time      7.0698: real time      7.0721

 eigenvalue-minimisations  :     0
 total energy-change (2. order) : 0.1745081E+01  (-0.7971606E+00)
 number of electron       9.9999999 magnetization
 augmentation part        0.6738066 magnetization

 DIPCOR: dipole corrections for dipol
 direction  1 min pos     1, direction  2 min pos     1, direction  3 min pos     1,
 dipolmoment           0.000001     -0.000002      0.045249 electrons x Angstroem
 Tr[quadrupol]         5.575265

 energy correction for charged system         0.000000 eV
 dipol+quadrupol energy correction           -0.000006 eV
 added-field ion interaction         -0.000310 eV  (added to PSCEN)


 Free energy of the ion-electron system (eV)
  ---------------------------------------------------
  alpha Z        PSCENC =         0.05065767
  Ewald energy   TEWEN  =       201.31390948
  -Hartree energ DENC   =      -708.26179759
  -exchange      EXHF   =         0.00000000
  -V(xc)+E(xc)   XCENC  =        41.41405963
  PAW double counting   =       861.61552658     -863.62359984
  entropy T*S    EENTRO =        -0.00000000
  eigenvalues    EBANDS =      -125.18296176
  atomic energy  EATOM  =       579.13436270
  ---------------------------------------------------
  free energy    TOTEN  =       -13.53984313 eV

  energy without entropy =      -13.53984313  energy(sigma->0) =      -13.53984313


--------------------------------------------------------------------------------------------------------




--------------------------------------- Iteration      1(   7)  ---------------------------------------


    POTLOK:  cpu time      0.1400: real time      0.1400
    SETDIJ:  cpu time      0.0758: real time      0.0758
    TRIAL :  cpu time      0.0985: real time      0.0986
    CORREC:  cpu time      0.3043: real time      0.3043
    CHARGE:  cpu time      0.0420: real time      0.0420
    --------------------------------------------
      LOOP:  cpu time      0.6650: real time      0.6748

 eigenvalue-minimisations  :     0
 total energy-change (2. order) :-0.8041222E+00  (-0.1066777E+00)
 number of electron       9.9999999 magnetization
 augmentation part        0.6551996 magnetization

 DIPCOR: dipole corrections for dipol
 direction  1 min pos     1, direction  2 min pos     1, direction  3 min pos     1,
 dipolmoment           0.000001     -0.000001      0.025275 electrons x Angstroem
 Tr[quadrupol]         5.303740

 energy correction for charged system         0.000000 eV
 dipol+quadrupol energy correction           -0.000002 eV
 added-field ion interaction         -0.000173 eV  (added to PSCEN)


 Free energy of the ion-electron system (eV)
  ---------------------------------------------------
  alpha Z        PSCENC =         0.05116195
  Ewald energy   TEWEN  =       201.31390948
  -Hartree energ DENC   =      -685.53302350
  -exchange      EXHF   =         0.00000000
  -V(xc)+E(xc)   XCENC  =        40.18983419
  PAW double counting   =       843.19061982     -845.02876176
  entropy T*S    EENTRO =        -0.00000000
  eigenvalues    EBANDS =      -147.66206825
  atomic energy  EATOM  =       579.13436270
  ---------------------------------------------------
  free energy    TOTEN  =       -14.34396537 eV

  energy without entropy =      -14.34396537  energy(sigma->0) =      -14.34396537


--------------------------------------------------------------------------------------------------------




--------------------------------------- Iteration      1(   8)  ---------------------------------------


    POTLOK:  cpu time      0.1353: real time      0.1353
    SETDIJ:  cpu time      0.0757: real time      0.0757
    TRIAL :  cpu time      0.0987: real time      0.0987
    CORREC:  cpu time      0.3036: real time      0.3036
    CHARGE:  cpu time      0.0427: real time      0.0427
    --------------------------------------------
      LOOP:  cpu time      0.6696: real time      0.6699

 eigenvalue-minimisations  :     0
 total energy-change (2. order) :-0.1066508E+00  (-0.3783335E-01)
 number of electron       9.9999999 magnetization
 augmentation part        0.6519484 magnetization

 DIPCOR: dipole corrections for dipol
 direction  1 min pos     1, direction  2 min pos     1, direction  3 min pos     1,
 dipolmoment           0.000000      0.000000     -0.020188 electrons x Angstroem
 Tr[quadrupol]         5.290455

 energy correction for charged system         0.000000 eV
 dipol+quadrupol energy correction           -0.000001 eV
 added-field ion interaction          0.000138 eV  (added to PSCEN)


 Free energy of the ion-electron system (eV)
  ---------------------------------------------------
  alpha Z        PSCENC =         0.05159233
  Ewald energy   TEWEN  =       201.31390948
  -Hartree energ DENC   =      -683.58211589
  -exchange      EXHF   =         0.00000000
  -V(xc)+E(xc)   XCENC  =        40.08454509
  PAW double counting   =       848.89402833     -850.61457171
  entropy T*S    EENTRO =        -0.00000000
  eigenvalues    EBANDS =      -149.73236652
  atomic energy  EATOM  =       579.13436270
  ---------------------------------------------------
  free energy    TOTEN  =       -14.45061619 eV

  energy without entropy =      -14.45061619  energy(sigma->0) =      -14.45061619


--------------------------------------------------------------------------------------------------------




--------------------------------------- Iteration      1(   9)  ---------------------------------------


    POTLOK:  cpu time      0.1374: real time      0.1374
    SETDIJ:  cpu time      0.0757: real time      0.0757
    TRIAL :  cpu time      0.0983: real time      0.0983
    CORREC:  cpu time      0.3039: real time      0.3039
    CHARGE:  cpu time      0.0428: real time      0.0428
    --------------------------------------------
      LOOP:  cpu time      0.6630: real time      0.6721

 eigenvalue-minimisations  :     0
 total energy-change (2. order) :-0.3782683E-01  (-0.1102374E-01)
 number of electron       9.9999999 magnetization
 augmentation part        0.6522080 magnetization

 DIPCOR: dipole corrections for dipol
 direction  1 min pos     1, direction  2 min pos     1, direction  3 min pos     1,
 dipolmoment           0.000000      0.000000     -0.031070 electrons x Angstroem
 Tr[quadrupol]         5.299477

 energy correction for charged system         0.000000 eV
 dipol+quadrupol energy correction           -0.000003 eV
 added-field ion interaction          0.000213 eV  (added to PSCEN)


 Free energy of the ion-electron system (eV)
  ---------------------------------------------------
  alpha Z        PSCENC =         0.05186553
  Ewald energy   TEWEN  =       201.31390948
  -Hartree energ DENC   =      -683.22058523
  -exchange      EXHF   =         0.00000000
  -V(xc)+E(xc)   XCENC  =        40.06786849
  PAW double counting   =       853.82376162     -855.51514025
  entropy T*S    EENTRO =        -0.00000000
  eigenvalues    EBANDS =      -150.14448535
  atomic energy  EATOM  =       579.13436270
  ---------------------------------------------------
  free energy    TOTEN  =       -14.48844302 eV

  energy without entropy =      -14.48844302  energy(sigma->0) =      -14.48844302


--------------------------------------------------------------------------------------------------------




--------------------------------------- Iteration      1(  10)  ---------------------------------------


    POTLOK:  cpu time      0.1372: real time      0.1372
    SETDIJ:  cpu time      0.0758: real time      0.0758
    TRIAL :  cpu time      0.0980: real time      0.0980
    CORREC:  cpu time      0.3051: real time      0.3051
    CHARGE:  cpu time      0.0431: real time      0.0431
    --------------------------------------------
      LOOP:  cpu time      0.6729: real time      0.6731

 eigenvalue-minimisations  :     0
 total energy-change (2. order) :-0.1101141E-01  (-0.4573690E-02)
 number of electron       9.9999999 magnetization
 augmentation part        0.6520247 magnetization

 DIPCOR: dipole corrections for dipol
 direction  1 min pos     1, direction  2 min pos     1, direction  3 min pos     1,
 dipolmoment           0.000000     -0.000000     -0.034033 electrons x Angstroem
 Tr[quadrupol]         5.319727

 energy correction for charged system         0.000000 eV
 dipol+quadrupol energy correction           -0.000003 eV
 added-field ion interaction          0.000233 eV  (added to PSCEN)


 Free energy of the ion-electron system (eV)
  ---------------------------------------------------
  alpha Z        PSCENC =         0.05193694
  Ewald energy   TEWEN  =       201.31390948
  -Hartree energ DENC   =      -682.85907033
  -exchange      EXHF   =         0.00000000
  -V(xc)+E(xc)   XCENC  =        40.05167567
  PAW double counting   =       855.38094541     -857.07087280
  entropy T*S    EENTRO =        -0.00000000
  eigenvalues    EBANDS =      -150.50234149
  atomic energy  EATOM  =       579.13436270
  ---------------------------------------------------
  free energy    TOTEN  =       -14.49945443 eV

  energy without entropy =      -14.49945443  energy(sigma->0) =      -14.49945443


--------------------------------------------------------------------------------------------------------




--------------------------------------- Iteration      1(  11)  ---------------------------------------


    POTLOK:  cpu time      0.1369: real time      0.1369
    SETDIJ:  cpu time      0.0757: real time      0.0757
    TRIAL :  cpu time      0.0979: real time      0.0979
    CORREC:  cpu time      0.3035: real time      0.3035
    CHARGE:  cpu time      0.0427: real time      0.0427
    --------------------------------------------
      LOOP:  cpu time      0.6606: real time      0.6709

 eigenvalue-minimisations  :     0
 total energy-change (2. order) :-0.4563994E-02  (-0.1801919E-02)
 number of electron       9.9999999 magnetization
 augmentation part        0.6520910 magnetization

 DIPCOR: dipole corrections for dipol
 direction  1 min pos     1, direction  2 min pos     1, direction  3 min pos     1,
 dipolmoment           0.000000     -0.000000     -0.032626 electrons x Angstroem
 Tr[quadrupol]         5.337142

 energy correction for charged system         0.000000 eV
 dipol+quadrupol energy correction           -0.000003 eV
 added-field ion interaction          0.000223 eV  (added to PSCEN)


 Free energy of the ion-electron system (eV)
  ---------------------------------------------------
  alpha Z        PSCENC =         0.05193732
  Ewald energy   TEWEN  =       201.31390948
  -Hartree energ DENC   =      -682.61455022
  -exchange      EXHF   =         0.00000000
  -V(xc)+E(xc)   XCENC  =        40.03999933
  PAW double counting   =       855.38978106     -857.07734202
  entropy T*S    EENTRO =        -0.00000000
  eigenvalues    EBANDS =      -150.74211606
  atomic energy  EATOM  =       579.13436270
  ---------------------------------------------------
  free energy    TOTEN  =       -14.50401842 eV

  energy without entropy =      -14.50401842  energy(sigma->0) =      -14.50401842


--------------------------------------------------------------------------------------------------------




--------------------------------------- Iteration      1(  12)  ---------------------------------------


    POTLOK:  cpu time      0.1376: real time      0.1376
    SETDIJ:  cpu time      0.0758: real time      0.0758
    TRIAL :  cpu time      0.0979: real time      0.0979
    CORREC:  cpu time      0.3025: real time      0.3025
    CHARGE:  cpu time      0.0429: real time      0.0429
    --------------------------------------------
      LOOP:  cpu time      0.6705: real time      0.6706

 eigenvalue-minimisations  :     0
 total energy-change (2. order) :-0.1798116E-02  (-0.5631209E-03)
 number of electron       9.9999999 magnetization
 augmentation part        0.6521394 magnetization

 DIPCOR: dipole corrections for dipol
 direction  1 min pos     1, direction  2 min pos     1, direction  3 min pos     1,
 dipolmoment          -0.000000     -0.000000     -0.030774 electrons x Angstroem
 Tr[quadrupol]         5.346318

 energy correction for charged system         0.000000 eV
 dipol+quadrupol energy correction           -0.000003 eV
 added-field ion interaction          0.000211 eV  (added to PSCEN)


 Free energy of the ion-electron system (eV)
  ---------------------------------------------------
  alpha Z        PSCENC =         0.05192340
  Ewald energy   TEWEN  =       201.31390948
  -Hartree energ DENC   =      -682.42568475
  -exchange      EXHF   =         0.00000000
  -V(xc)+E(xc)   XCENC  =        40.02903165
  PAW double counting   =       854.66060221     -856.34961616
  entropy T*S    EENTRO =        -0.00000000
  eigenvalues    EBANDS =      -150.92034507
  atomic energy  EATOM  =       579.13436270
  ---------------------------------------------------
  free energy    TOTEN  =       -14.50581654 eV

  energy without entropy =      -14.50581654  energy(sigma->0) =      -14.50581654


--------------------------------------------------------------------------------------------------------




--------------------------------------- Iteration      1(  13)  ---------------------------------------


    POTLOK:  cpu time      0.1369: real time      0.1370
    SETDIJ:  cpu time      0.0757: real time      0.0757
    TRIAL :  cpu time      0.0973: real time      0.0973
    CORREC:  cpu time      0.3026: real time      0.3026
    CHARGE:  cpu time      0.0429: real time      0.0429
    --------------------------------------------
      LOOP:  cpu time      0.6693: real time      0.6695

 eigenvalue-minimisations  :     0
 total energy-change (2. order) :-0.5628246E-03  (-0.1433458E-03)
 number of electron       9.9999999 magnetization
 augmentation part        0.6521070 magnetization

 DIPCOR: dipole corrections for dipol
 direction  1 min pos     1, direction  2 min pos     1, direction  3 min pos     1,
 dipolmoment          -0.000000     -0.000000     -0.029661 electrons x Angstroem
 Tr[quadrupol]         5.349333

 energy correction for charged system         0.000000 eV
 dipol+quadrupol energy correction           -0.000003 eV
 added-field ion interaction          0.000203 eV  (added to PSCEN)


 Free energy of the ion-electron system (eV)
  ---------------------------------------------------
  alpha Z        PSCENC =         0.05191264
  Ewald energy   TEWEN  =       201.31390948
  -Hartree energ DENC   =      -682.33202579
  -exchange      EXHF   =         0.00000000
  -V(xc)+E(xc)   XCENC  =        40.02302786
  PAW double counting   =       854.01394330     -855.70475608
  entropy T*S    EENTRO =        -0.00000000
  eigenvalues    EBANDS =      -151.00675347
  atomic energy  EATOM  =       579.13436270
  ---------------------------------------------------
  free energy    TOTEN  =       -14.50637937 eV

  energy without entropy =      -14.50637937  energy(sigma->0) =      -14.50637937


--------------------------------------------------------------------------------------------------------




--------------------------------------- Iteration      1(  14)  ---------------------------------------


    POTLOK:  cpu time      0.1370: real time      0.1370
    SETDIJ:  cpu time      0.0757: real time      0.0757
    TRIAL :  cpu time      0.0968: real time      0.0968
    CORREC:  cpu time      0.3026: real time      0.3031
    CHARGE:  cpu time      0.0431: real time      0.0431
    --------------------------------------------
      LOOP:  cpu time      0.6596: real time      0.6697

 eigenvalue-minimisations  :     0
 total energy-change (2. order) :-0.1433304E-03  (-0.3441070E-04)
 number of electron       9.9999999 magnetization
 augmentation part        0.6520778 magnetization

 DIPCOR: dipole corrections for dipol
 direction  1 min pos     1, direction  2 min pos     1, direction  3 min pos     1,
 dipolmoment           0.000000     -0.000000     -0.029198 electrons x Angstroem
 Tr[quadrupol]         5.350269

 energy correction for charged system         0.000000 eV
 dipol+quadrupol energy correction           -0.000003 eV
 added-field ion interaction          0.000200 eV  (added to PSCEN)


 Free energy of the ion-electron system (eV)
  ---------------------------------------------------
  alpha Z        PSCENC =         0.05190651
  Ewald energy   TEWEN  =       201.31390948
  -Hartree energ DENC   =      -682.31167492
  -exchange      EXHF   =         0.00000000
  -V(xc)+E(xc)   XCENC  =        40.02154344
  PAW double counting   =       853.61689722     -855.30820997
  entropy T*S    EENTRO =        -0.00000000
  eigenvalues    EBANDS =      -151.02525714
  atomic energy  EATOM  =       579.13436270
  ---------------------------------------------------
  free energy    TOTEN  =       -14.50652270 eV

  energy without entropy =      -14.50652270  energy(sigma->0) =      -14.50652270


--------------------------------------------------------------------------------------------------------




--------------------------------------- Iteration      1(  15)  ---------------------------------------


    POTLOK:  cpu time      0.1348: real time      0.1348
    SETDIJ:  cpu time      0.0757: real time      0.0757
    TRIAL :  cpu time      0.0975: real time      0.0975
    CORREC:  cpu time      0.3057: real time      0.3057
    CHARGE:  cpu time      0.0425: real time      0.0425
    --------------------------------------------
      LOOP:  cpu time      0.6604: real time      0.6702

 eigenvalue-minimisations  :     0
 total energy-change (2. order) :-0.3438816E-04  (-0.8341125E-05)
 number of electron       9.9999999 magnetization
 augmentation part        0.6520542 magnetization

 DIPCOR: dipole corrections for dipol
 direction  1 min pos     1, direction  2 min pos     1, direction  3 min pos     1,
 dipolmoment           0.000000     -0.000000     -0.029084 electrons x Angstroem
 Tr[quadrupol]         5.350455

 energy correction for charged system         0.000000 eV
 dipol+quadrupol energy correction           -0.000003 eV
 added-field ion interaction          0.000199 eV  (added to PSCEN)


 Free energy of the ion-electron system (eV)
  ---------------------------------------------------
  alpha Z        PSCENC =         0.05190438
  Ewald energy   TEWEN  =       201.31390948
  -Hartree energ DENC   =      -682.31354317
  -exchange      EXHF   =         0.00000000
  -V(xc)+E(xc)   XCENC  =        40.02151099
  PAW double counting   =       853.39571855     -855.08707784
  entropy T*S    EENTRO =        -0.00000000
  eigenvalues    EBANDS =      -151.02334216
  atomic energy  EATOM  =       579.13436270
  ---------------------------------------------------
  free energy    TOTEN  =       -14.50655708 eV

  energy without entropy =      -14.50655708  energy(sigma->0) =      -14.50655708


--------------------------------------------------------------------------------------------------------




--------------------------------------- Iteration      1(  16)  ---------------------------------------


    POTLOK:  cpu time      0.1367: real time      0.1368
    SETDIJ:  cpu time      0.0761: real time      0.0761
    TRIAL :  cpu time      0.0973: real time      0.0974
    CORREC:  cpu time      0.3030: real time      0.3030
    CHARGE:  cpu time      0.0434: real time      0.0434
    --------------------------------------------
      LOOP:  cpu time      0.6619: real time      0.6706

 eigenvalue-minimisations  :     0
 total energy-change (2. order) :-0.8348680E-05  (-0.2359075E-05)
 number of electron       9.9999999 magnetization
 augmentation part        0.6520578 magnetization

 DIPCOR: dipole corrections for dipol
 direction  1 min pos     1, direction  2 min pos     1, direction  3 min pos     1,
 dipolmoment           0.000000     -0.000000     -0.029072 electrons x Angstroem
 Tr[quadrupol]         5.350325

 energy correction for charged system         0.000000 eV
 dipol+quadrupol energy correction           -0.000003 eV
 added-field ion interaction          0.000199 eV  (added to PSCEN)


 Free energy of the ion-electron system (eV)
  ---------------------------------------------------
  alpha Z        PSCENC =         0.05190421
  Ewald energy   TEWEN  =       201.31390948
  -Hartree energ DENC   =      -682.31269064
  -exchange      EXHF   =         0.00000000
  -V(xc)+E(xc)   XCENC  =        40.02141669
  PAW double counting   =       853.28248981     -854.97382729
  entropy T*S    EENTRO =        -0.00000000
  eigenvalues    EBANDS =      -151.02413039
  atomic energy  EATOM  =       579.13436270
  ---------------------------------------------------
  free energy    TOTEN  =       -14.50656543 eV

  energy without entropy =      -14.50656543  energy(sigma->0) =      -14.50656543


--------------------------------------------------------------------------------------------------------




--------------------------------------- Iteration      1(  17)  ---------------------------------------


    POTLOK:  cpu time      0.1365: real time      0.1365
    SETDIJ:  cpu time      0.0757: real time      0.0757
    TRIAL :  cpu time      0.0980: real time      0.0980
    CORREC:  cpu time      0.3021: real time      0.3021
    CHARGE:  cpu time      0.0426: real time      0.0426
    --------------------------------------------
      LOOP:  cpu time      0.6610: real time      0.6688

 eigenvalue-minimisations  :     0
 total energy-change (2. order) :-0.2376194E-05  (-0.7050701E-06)
 number of electron       9.9999999 magnetization
 augmentation part        0.6520664 magnetization

 DIPCOR: dipole corrections for dipol
 direction  1 min pos     1, direction  2 min pos     1, direction  3 min pos     1,
 dipolmoment           0.000000      0.000000     -0.029064 electrons x Angstroem
 Tr[quadrupol]         5.350159

 energy correction for charged system         0.000000 eV
 dipol+quadrupol energy correction           -0.000003 eV
 added-field ion interaction          0.000199 eV  (added to PSCEN)


 Free energy of the ion-electron system (eV)
  ---------------------------------------------------
  alpha Z        PSCENC =         0.05190416
  Ewald energy   TEWEN  =       201.31390948
  -Hartree energ DENC   =      -682.31637144
  -exchange      EXHF   =         0.00000000
  -V(xc)+E(xc)   XCENC  =        40.02160035
  PAW double counting   =       853.23445823     -854.92583620
  entropy T*S    EENTRO =        -0.00000000
  eigenvalues    EBANDS =      -151.02059507
  atomic energy  EATOM  =       579.13436270
  ---------------------------------------------------
  free energy    TOTEN  =       -14.50656781 eV

  energy without entropy =      -14.50656781  energy(sigma->0) =      -14.50656781


--------------------------------------------------------------------------------------------------------




--------------------------------------- Iteration      1(  18)  ---------------------------------------


    POTLOK:  cpu time      0.1371: real time      0.1371
    SETDIJ:  cpu time      0.0757: real time      0.0757
    TRIAL :  cpu time      0.0976: real time      0.0976
    CORREC:  cpu time      0.3026: real time      0.3027
    CHARGE:  cpu time      0.0426: real time      0.0426
    --------------------------------------------
      LOOP:  cpu time      0.6613: real time      0.6695

 eigenvalue-minimisations  :     0
 total energy-change (2. order) :-0.7214553E-06  (-0.2063747E-06)
 number of electron       9.9999999 magnetization
 augmentation part        0.6520722 magnetization

 DIPCOR: dipole corrections for dipol
 direction  1 min pos     1, direction  2 min pos     1, direction  3 min pos     1,
 dipolmoment           0.000000      0.000000     -0.029062 electrons x Angstroem
 Tr[quadrupol]         5.350044

 energy correction for charged system         0.000000 eV
 dipol+quadrupol energy correction           -0.000003 eV
 added-field ion interaction          0.000199 eV  (added to PSCEN)


 Free energy of the ion-electron system (eV)
  ---------------------------------------------------
  alpha Z        PSCENC =         0.05190411
  Ewald energy   TEWEN  =       201.31390948
  -Hartree energ DENC   =      -682.31837856
  -exchange      EXHF   =         0.00000000
  -V(xc)+E(xc)   XCENC  =        40.02171698
  PAW double counting   =       853.22094836     -854.91237930
  entropy T*S    EENTRO =        -0.00000000
  eigenvalues    EBANDS =      -151.01865231
  atomic energy  EATOM  =       579.13436270
  ---------------------------------------------------
  free energy    TOTEN  =       -14.50656853 eV

  energy without entropy =      -14.50656853  energy(sigma->0) =      -14.50656853


--------------------------------------------------------------------------------------------------------




--------------------------------------- Iteration      1(  19)  ---------------------------------------


    POTLOK:  cpu time      0.1370: real time      0.1371
    SETDIJ:  cpu time      0.0757: real time      0.0757
    TRIAL :  cpu time      0.0978: real time      0.0978
    CORREC:  cpu time      0.3008: real time      0.3008
    CHARGE:  cpu time      0.0429: real time      0.0429
    --------------------------------------------
      LOOP:  cpu time      0.6678: real time      0.6680

 eigenvalue-minimisations  :     0
 total energy-change (2. order) :-0.2122180E-06  (-0.6285239E-07)
 number of electron       9.9999999 magnetization
 augmentation part        0.6520768 magnetization

 DIPCOR: dipole corrections for dipol
 direction  1 min pos     1, direction  2 min pos     1, direction  3 min pos     1,
 dipolmoment           0.000000      0.000000     -0.029061 electrons x Angstroem
 Tr[quadrupol]         5.349972

 energy correction for charged system         0.000000 eV
 dipol+quadrupol energy correction           -0.000003 eV
 added-field ion interaction          0.000199 eV  (added to PSCEN)


 Free energy of the ion-electron system (eV)
  ---------------------------------------------------
  alpha Z        PSCENC =         0.05190411
  Ewald energy   TEWEN  =       201.31390948
  -Hartree energ DENC   =      -682.31923286
  -exchange      EXHF   =         0.00000000
  -V(xc)+E(xc)   XCENC  =        40.02177577
  PAW double counting   =       853.22428782     -854.91575535
  entropy T*S    EENTRO =        -0.00000000
  eigenvalues    EBANDS =      -151.01782041
  atomic energy  EATOM  =       579.13436270
  ---------------------------------------------------
  free energy    TOTEN  =       -14.50656874 eV

  energy without entropy =      -14.50656874  energy(sigma->0) =      -14.50656874


--------------------------------------------------------------------------------------------------------




--------------------------------------- Iteration      1(  20)  ---------------------------------------


    POTLOK:  cpu time      0.1363: real time      0.1363
    SETDIJ:  cpu time      0.0756: real time      0.0756
    TRIAL :  cpu time      0.0970: real time      0.0970
    CORREC:  cpu time      0.3027: real time      0.3027
    CHARGE:  cpu time      0.0426: real time      0.0426
    --------------------------------------------
      LOOP:  cpu time      0.6590: real time      0.6679

 eigenvalue-minimisations  :     0
 total energy-change (2. order) :-0.6431628E-07  (-0.1656443E-07)
 number of electron       9.9999999 magnetization
 augmentation part        0.6520792 magnetization

 DIPCOR: dipole corrections for dipol
 direction  1 min pos     1, direction  2 min pos     1, direction  3 min pos     1,
 dipolmoment          -0.000000      0.000000     -0.029059 electrons x Angstroem
 Tr[quadrupol]         5.349934

 energy correction for charged system         0.000000 eV
 dipol+quadrupol energy correction           -0.000003 eV
 added-field ion interaction          0.000199 eV  (added to PSCEN)


 Free energy of the ion-electron system (eV)
  ---------------------------------------------------
  alpha Z        PSCENC =         0.05190411
  Ewald energy   TEWEN  =       201.31390948
  -Hartree energ DENC   =      -682.32004060
  -exchange      EXHF   =         0.00000000
  -V(xc)+E(xc)   XCENC  =        40.02182663
  PAW double counting   =       853.23248384     -854.92397701
  entropy T*S    EENTRO =        -0.00000000
  eigenvalues    EBANDS =      -151.01703795
  atomic energy  EATOM  =       579.13436270
  ---------------------------------------------------
  free energy    TOTEN  =       -14.50656881 eV

  energy without entropy =      -14.50656881  energy(sigma->0) =      -14.50656881


--------------------------------------------------------------------------------------------------------




--------------------------------------- Iteration      1(  21)  ---------------------------------------


    POTLOK:  cpu time      0.1358: real time      0.1358
    SETDIJ:  cpu time      0.0759: real time      0.0759
    TRIAL :  cpu time      0.0978: real time      0.0978
    CORREC:  cpu time      0.3016: real time      0.3017
    CHARGE:  cpu time      0.0428: real time      0.0428
    --------------------------------------------
      LOOP:  cpu time      0.6676: real time      0.6677

 eigenvalue-minimisations  :     0
 total energy-change (2. order) :-0.1651597E-07  (-0.4372776E-08)
 number of electron       9.9999999 magnetization
 augmentation part        0.6520802 magnetization

 DIPCOR: dipole corrections for dipol
 direction  1 min pos     1, direction  2 min pos     1, direction  3 min pos     1,
 dipolmoment          -0.000000      0.000000     -0.029058 electrons x Angstroem
 Tr[quadrupol]         5.349922

 energy correction for charged system         0.000000 eV
 dipol+quadrupol energy correction           -0.000003 eV
 added-field ion interaction          0.000199 eV  (added to PSCEN)


 Free energy of the ion-electron system (eV)
  ---------------------------------------------------
  alpha Z        PSCENC =         0.05190410
  Ewald energy   TEWEN  =       201.31390948
  -Hartree energ DENC   =      -682.32034126
  -exchange      EXHF   =         0.00000000
  -V(xc)+E(xc)   XCENC  =        40.02184550
  PAW double counting   =       853.23870184     -854.93020826
  entropy T*S    EENTRO =        -0.00000000
  eigenvalues    EBANDS =      -151.01674291
  atomic energy  EATOM  =       579.13436270
  ---------------------------------------------------
  free energy    TOTEN  =       -14.50656882 eV

  energy without entropy =      -14.50656882  energy(sigma->0) =      -14.50656882


--------------------------------------------------------------------------------------------------------




--------------------------------------- Iteration      1(  22)  ---------------------------------------


    POTLOK:  cpu time      0.1356: real time      0.1356
    SETDIJ:  cpu time      0.0757: real time      0.0757
    TRIAL :  cpu time      0.0977: real time      0.0977
    CORREC:  cpu time      0.3015: real time      0.3015
    EDDIAG:  cpu time      0.0545: real time      0.0546
    CHARGE:  cpu time      0.0441: real time      0.0441
    --------------------------------------------
      LOOP:  cpu time      0.7131: real time      0.7229

 eigenvalue-minimisations  :     0
 total energy-change (2. order) :-0.3818968E-08  (-0.1271438E-08)
 number of electron       9.9999999 magnetization
 augmentation part        0.6520808 magnetization

 DIPCOR: dipole corrections for dipol
 direction  1 min pos     1, direction  2 min pos     1, direction  3 min pos     1,
 dipolmoment          -0.000000      0.000000     -0.029058 electrons x Angstroem
 Tr[quadrupol]         5.349918

 energy correction for charged system         0.000000 eV
 dipol+quadrupol energy correction           -0.000003 eV
 added-field ion interaction          0.000199 eV  (added to PSCEN)


 Free energy of the ion-electron system (eV)
  ---------------------------------------------------
  alpha Z        PSCENC =         0.05190409
  Ewald energy   TEWEN  =       201.31390948
  -Hartree energ DENC   =      -682.32040860
  -exchange      EXHF   =         0.00000000
  -V(xc)+E(xc)   XCENC  =        40.02185000
  PAW double counting   =       853.24228609     -854.93379846
  entropy T*S    EENTRO =        -0.00000000
  eigenvalues    EBANDS =      -151.01667411
  atomic energy  EATOM  =       579.13436270
  ---------------------------------------------------
  free energy    TOTEN  =       -14.50656883 eV

  energy without entropy =      -14.50656883  energy(sigma->0) =      -14.50656883


--------------------------------------------------------------------------------------------------------


  average scaling for gradient   1.9066


 average (electrostatic) potential at core
  the test charge radii are     0.6991  0.7215
  (the norm of the test charge is              1.0000)
       1 -61.7711       2 -83.5296



 E-fermi :  -8.7505     XC(G=0):  -0.0923     alpha+bet : -0.0207

 Fermi energy:        -8.7504823763

 k-point     1 :       0.0000    0.0000    0.0000
  band No.  band energies     occupation
      1     -29.1890      2.00000
      2     -14.0239      2.00000
      3     -11.6282      2.00000
      4     -11.6282      2.00000
      5      -9.0391      2.00000
      6      -2.0994      0.00000
      7      -2.0994      0.00000
      8      -0.1590      0.00000
      9       0.1320      0.00000
     10       0.2698      0.00000
     11       0.3181      0.00000
     12       0.3181      0.00000
     13       0.3539      0.00000
     14       0.3754      0.00000
     15       0.5463      0.00000
     16       0.5960      0.00000
     17       0.6032      0.00000
     18       0.6032      0.00000
     19       0.7025      0.00000
     20       0.7025      0.00000
     21       0.7081      0.00000
     22       0.7174      0.00000
     23       0.7352      0.00000
     24       0.7399      0.00000
     25       0.7399      0.00000
     26       0.7399      0.00000
     27       0.9833      0.00000
     28       1.0128      0.00000
     29       1.0128      0.00000
     30       1.0409      0.00000
     31       1.0619      0.00000
     32       1.0701      0.00000
     33       1.0701      0.00000
     34       1.0882      0.00000
     35       1.2613      0.00000
     36       1.2919      0.00000
     37       1.4022      0.00000
     38       1.4022      0.00000
     39       1.4326      0.00000
     40       1.4745      0.00000
     41       1.5271      0.00000
     42       1.6079      0.00000
     43       1.6399      0.00000
     44       1.6399      0.00000
     45       1.6860      0.00000
     46       1.6860      0.00000
     47       1.7079      0.00000
     48       1.7243      0.00000
     49       1.7402      0.00000
     50       1.7402      0.00000
     51       1.7549      0.00000
     52       1.7647      0.00000
     53       1.8023      0.00000
     54       1.8154      0.00000
     55       1.8173      0.00000
     56       1.8173      0.00000
     57       1.8301      0.00000
     58       1.8530      0.00000
     59       1.8530      0.00000
     60       1.8617      0.00000
     61       1.8747      0.00000
     62       1.8783      0.00000
     63       1.8783      0.00000
     64       1.8820      0.00000


--------------------------------------------------------------------------------------------------------


 soft charge-density along one line, spin component           1
         0         1         2         3         4         5         6         7         8         9
 total charge-density along one line

 pseudopotential strength for first ion, spin component:           1
 10.446  13.897  -0.000   0.038   0.000   0.000  -0.110  -0.000
 13.897  18.488  -0.000   0.051   0.000   0.000  -0.145  -0.000
 -0.000  -0.000  -4.451  -0.000  -0.000   8.702   0.000   0.000
  0.038   0.051  -0.000  -4.507   0.000   0.000   8.794  -0.000
  0.000   0.000  -0.000   0.000  -4.451   0.000  -0.000   8.702
  0.000   0.000   8.702   0.000   0.000 -19.154  -0.000  -0.000
 -0.110  -0.145   0.000   8.794  -0.000  -0.000 -19.305   0.000
 -0.000  -0.000   0.000  -0.000   8.702  -0.000   0.000 -19.154
 total augmentation occupancy for first ion, spin component:           1
  7.684  -3.504   0.000   2.089   0.000   0.000   0.389   0.000
 -3.504   1.975  -0.000  -1.601  -0.000  -0.000  -0.237  -0.000
  0.000  -0.000   0.822  -0.000  -0.000   0.062  -0.000  -0.000
  2.089  -1.601  -0.000   2.225   0.000  -0.000   0.212   0.000
  0.000  -0.000  -0.000   0.000   0.822  -0.000   0.000   0.062
  0.000  -0.000   0.062  -0.000  -0.000   0.005  -0.000  -0.000
  0.389  -0.237  -0.000   0.212   0.000  -0.000   0.029   0.000
  0.000  -0.000  -0.000   0.000   0.062  -0.000   0.000   0.005


------------------------ aborting loop because EDIFF is reached ----------------------------------------


    FORLOC:  cpu time      0.0030: real time      0.0030
    FORNL :  cpu time      0.0025: real time      0.0025
    STRESS:  cpu time      0.0645: real time      0.0646
    FORCOR:  cpu time      0.1027: real time      0.1027
    OFIELD:  cpu time      0.0003: real time      0.0003
    FORVDW:  cpu time      0.0010: real time      0.0010

  FORCE on cell =-STRESS in cart. coord.  units (eV):
  Direction    XX          YY          ZZ          XY          YZ          ZX
  --------------------------------------------------------------------------------------
  Alpha Z     0.05171     0.05171     0.05171
  Ewald     -31.59440   -31.59440   264.50267    -0.00000    -0.00000    -0.00000
  Hartree   193.55628   193.55628   295.20788    -0.00000    -0.00000     0.00000
  E(xc)     -44.33540   -44.33540   -42.91400    -0.00000    -0.00000     0.00000
  Local    -296.95154  -296.95154  -668.82414     0.00000    -0.00000     0.00000
  n-local   -17.57655   -17.57655   -28.84084    -0.00000    -0.00000     0.00000
  augment     6.19992     6.19992     5.73755    -0.00000     0.00000     0.00000
  Kinetic   190.58551   190.58551   174.99956     0.00000     0.00000    -0.00000
  Fock        0.00000     0.00000     0.00000     0.00000     0.00000     0.00000
  vdW        -0.00000    -0.00000    -0.00070    -0.00000     0.00000     0.00000
  -------------------------------------------------------------------------------------
  Total      -0.06448    -0.06448    -0.08031     0.00000    -0.00000     0.00000
  in kB      -0.01222    -0.01222    -0.01523     0.00000    -0.00000     0.00000
  external pressure =       -0.01 kB  Pullay stress =        0.00 kB


 VOLUME and BASIS-vectors are now :
 -----------------------------------------------------------------------------
  energy-cutoff  :      600.00
  volume of cell :     8450.53
      direct lattice vectors                 reciprocal lattice vectors
    20.000000000  0.000000000  0.000000000     0.050000000  0.000000000  0.000000000
     0.000000000 20.000000000  0.000000000     0.000000000  0.050000000  0.000000000
     0.000000000  0.000000000 21.126328287     0.000000000  0.000000000  0.047334302

  length of vectors
    20.000000000 20.000000000 21.126328287     0.050000000  0.050000000  0.047334302


 FORCES acting on ions:
    Electron-Ion                     Ewald-Force                    Non-Local-Force
 -----------------------------------------------------------------------------------------------
   -.103E-07 0.152E-07 0.235E+03   -.118E-16 -.157E-17 -.263E+03   0.899E-08 -.568E-08 0.278E+02
   0.131E-07 -.478E-07 -.204E+03   -.368E-17 -.123E-16 0.263E+03   -.107E-07 0.250E-07 -.589E+02
 -----------------------------------------------------------------------------------------------
   0.270E-08 -.326E-07 0.311E+02   -.154E-16 -.139E-16 0.000E+00   -.174E-08 0.194E-07 -.311E+02


 POSITION                                       TOTAL-FORCE (eV/Angst)
 -----------------------------------------------------------------------------------
     10.00000     10.00000      9.98987        -0.000000      0.000000      0.005064
     10.00000     10.00000     11.13646         0.000000     -0.000000     -0.005064
 -----------------------------------------------------------------------------------
    total drift:                                0.000000     -0.000000      0.000850


--------------------------------------------------------------------------------------------------------



  FREE ENERGIE OF THE ION-ELECTRON SYSTEM (eV)
  ---------------------------------------------------
  free  energy   TOTEN  =       -14.54864860 eV

  energy  without entropy=      -14.54864860  energy(sigma->0) =      -14.54864860



--------------------------------------------------------------------------------------------------------


    POTLOK:  cpu time      0.2113: real time      0.2113


--------------------------------------------------------------------------------------------------------


 Finite differences:
   Step               POTIM =    1.0000000000000000E-002
   Degrees of freedom DOF   =            6
    WAVPRE:  cpu time      0.0145: real time      0.0487
    FEWALD:  cpu time      0.0004: real time      0.0004
    ORTHCH:  cpu time      0.0058: real time      0.0058
    POTLOK:  cpu time      0.2136: real time      0.2136
    EDDIAG:  cpu time      0.0568: real time      0.0568
    CHARGE:  cpu time      0.0432: real time      0.0432
     LOOP+:  cpu time     19.9712: real time     20.1725


--------------------------------------- Iteration      2(   1)  ---------------------------------------


    POTLOK:  cpu time      0.1369: real time      0.1369
    SETDIJ:  cpu time      0.0757: real time      0.0757
    TRIAL :  cpu time      0.0989: real time      0.0989
    CORREC:  cpu time      0.3064: real time      0.3064
    CHARGE:  cpu time      0.0423: real time      0.0424
    --------------------------------------------
      LOOP:  cpu time      0.6609: real time      0.6609

 eigenvalue-minimisations  :     0
 total energy-change (2. order) : 0.1708964E-01  (-0.1364631E-01)
 number of electron       9.9999999 magnetization
 augmentation part        0.6517040 magnetization

 DIPCOR: dipole corrections for dipol
 direction  1 min pos     1, direction  2 min pos     1, direction  3 min pos     1,
 dipolmoment          -0.000289     -0.000000     -0.027997 electrons x Angstroem
 Tr[quadrupol]         5.351395

 energy correction for charged system         0.000000 eV
 dipol+quadrupol energy correction           -0.000002 eV
 added-field ion interaction          0.000192 eV  (added to PSCEN)


 Free energy of the ion-electron system (eV)
  ---------------------------------------------------
  alpha Z        PSCENC =         0.05189499
  Ewald energy   TEWEN  =       201.30245606
  -Hartree energ DENC   =      -682.37853753
  -exchange      EXHF   =         0.00000000
  -V(xc)+E(xc)   XCENC  =        40.02456761
  PAW double counting   =       859.16986738     -860.86186589
  entropy T*S    EENTRO =        -0.00000000
  eigenvalues    EBANDS =      -150.93222451
  atomic energy  EATOM  =       579.13436270
  ---------------------------------------------------
  free energy    TOTEN  =       -14.48947919 eV

  energy without entropy =      -14.48947919  energy(sigma->0) =      -14.48947919


--------------------------------------------------------------------------------------------------------




--------------------------------------- Iteration      2(   2)  ---------------------------------------


    POTLOK:  cpu time      0.1385: real time      0.1385
    SETDIJ:  cpu time      0.0757: real time      0.0757
    TRIAL :  cpu time      0.0976: real time      0.0976
    CORREC:  cpu time      0.3048: real time      0.3048
    CHARGE:  cpu time      0.0432: real time      0.0432
    --------------------------------------------
      LOOP:  cpu time      0.6735: real time      0.6737

 eigenvalue-minimisations  :     0
 total energy-change (2. order) :-0.1364062E-01  (-0.2538015E-02)
 number of electron       9.9999999 magnetization
 augmentation part        0.6520518 magnetization

 DIPCOR: dipole corrections for dipol
 direction  1 min pos     1, direction  2 min pos     1, direction  3 min pos     1,
 dipolmoment           0.006592      0.000000     -0.028861 electrons x Angstroem
 Tr[quadrupol]         5.348327

 energy correction for charged system         0.000000 eV
 dipol+quadrupol energy correction           -0.000003 eV
 added-field ion interaction          0.000196 eV  (added to PSCEN)


 Free energy of the ion-electron system (eV)
  ---------------------------------------------------
  alpha Z        PSCENC =         0.05189749
  Ewald energy   TEWEN  =       201.30245606
  -Hartree energ DENC   =      -682.18128393
  -exchange      EXHF   =         0.00000000
  -V(xc)+E(xc)   XCENC  =        40.01439470
  PAW double counting   =       853.31310792     -855.00388140
  entropy T*S    EENTRO =        -0.00000000
  eigenvalues    EBANDS =      -151.13417334
  atomic energy  EATOM  =       579.13436270
  ---------------------------------------------------
  free energy    TOTEN  =       -14.50311980 eV

  energy without entropy =      -14.50311980  energy(sigma->0) =      -14.50311980


--------------------------------------------------------------------------------------------------------




--------------------------------------- Iteration      2(   3)  ---------------------------------------


    POTLOK:  cpu time      0.1365: real time      0.1365
    SETDIJ:  cpu time      0.0757: real time      0.0757
    TRIAL :  cpu time      0.0972: real time      0.0972
    CORREC:  cpu time      0.3034: real time      0.3034
    CHARGE:  cpu time      0.0430: real time      0.0430
    --------------------------------------------
      LOOP:  cpu time      0.6611: real time      0.6698

 eigenvalue-minimisations  :     0
 total energy-change (2. order) :-0.2537728E-02  (-0.6668210E-03)
 number of electron       9.9999999 magnetization
 augmentation part        0.6520755 magnetization

 DIPCOR: dipole corrections for dipol
 direction  1 min pos     1, direction  2 min pos     1, direction  3 min pos     1,
 dipolmoment           0.001521      0.000000     -0.029071 electrons x Angstroem
 Tr[quadrupol]         5.350071

 energy correction for charged system         0.000000 eV
 dipol+quadrupol energy correction           -0.000003 eV
 added-field ion interaction          0.000199 eV  (added to PSCEN)


 Free energy of the ion-electron system (eV)
  ---------------------------------------------------
  alpha Z        PSCENC =         0.05189994
  Ewald energy   TEWEN  =       201.30245606
  -Hartree energ DENC   =      -682.36162135
  -exchange      EXHF   =         0.00000000
  -V(xc)+E(xc)   XCENC  =        40.02421849
  PAW double counting   =       853.17270092     -854.86387806
  entropy T*S    EENTRO =        -0.00000000
  eigenvalues    EBANDS =      -150.96579624
  atomic energy  EATOM  =       579.13436270
  ---------------------------------------------------
  free energy    TOTEN  =       -14.50565753 eV

  energy without entropy =      -14.50565753  energy(sigma->0) =      -14.50565753


--------------------------------------------------------------------------------------------------------




--------------------------------------- Iteration      2(   4)  ---------------------------------------


    POTLOK:  cpu time      0.1367: real time      0.1367
    SETDIJ:  cpu time      0.0758: real time      0.0758
    TRIAL :  cpu time      0.0972: real time      0.0972
    CORREC:  cpu time      0.3023: real time      0.3024
    CHARGE:  cpu time      0.0429: real time      0.0429
    --------------------------------------------
      LOOP:  cpu time      0.6624: real time      0.6689

 eigenvalue-minimisations  :     0
 total energy-change (2. order) :-0.6667717E-03  (-0.1705184E-03)
 number of electron       9.9999999 magnetization
 augmentation part        0.6520058 magnetization

 DIPCOR: dipole corrections for dipol
 direction  1 min pos     1, direction  2 min pos     1, direction  3 min pos     1,
 dipolmoment           0.001631     -0.000000     -0.029046 electrons x Angstroem
 Tr[quadrupol]         5.350451

 energy correction for charged system         0.000000 eV
 dipol+quadrupol energy correction           -0.000003 eV
 added-field ion interaction          0.000198 eV  (added to PSCEN)


 Free energy of the ion-electron system (eV)
  ---------------------------------------------------
  alpha Z        PSCENC =         0.05190274
  Ewald energy   TEWEN  =       201.30245606
  -Hartree energ DENC   =      -682.32677953
  -exchange      EXHF   =         0.00000000
  -V(xc)+E(xc)   XCENC  =        40.02234458
  PAW double counting   =       853.16842915     -854.85991339
  entropy T*S    EENTRO =        -0.00000000
  eigenvalues    EBANDS =      -150.99912661
  atomic energy  EATOM  =       579.13436270
  ---------------------------------------------------
  free energy    TOTEN  =       -14.50632430 eV
[...]




--------------------------------------- Iteration     13(  16)  ---------------------------------------


    POTLOK:  cpu time      0.1376: real time      0.1376
    SETDIJ:  cpu time      0.0757: real time      0.0757
    TRIAL :  cpu time      0.0973: real time      0.0974
    CORREC:  cpu time      0.3022: real time      0.3022
    CHARGE:  cpu time      0.0429: real time      0.0429
    --------------------------------------------
      LOOP:  cpu time      0.6700: real time      0.6703

 eigenvalue-minimisations  :     0
 total energy-change (2. order) : 0.5947794E-07  (-0.4769818E-07)
 number of electron       9.9999998 magnetization
 augmentation part        0.6574053 magnetization

 DIPCOR: dipole corrections for dipol
 direction  1 min pos     1, direction  2 min pos     1, direction  3 min pos     1,
 dipolmoment           0.000000     -0.000000     -0.035723 electrons x Angstroem
 Tr[quadrupol]         5.340679

 energy correction for charged system         0.000000 eV
 dipol+quadrupol energy correction           -0.000004 eV
 added-field ion interaction          0.000232 eV  (added to PSCEN)


 Free energy of the ion-electron system (eV)
  ---------------------------------------------------
  alpha Z        PSCENC =         0.05193562
  Ewald energy   TEWEN  =       203.96412046
  -Hartree energ DENC   =      -684.45219834
  -exchange      EXHF   =         0.00000000
  -V(xc)+E(xc)   XCENC  =        40.09942872
  PAW double counting   =       870.43471189     -872.13733351
  entropy T*S    EENTRO =        -0.00000000
  eigenvalues    EBANDS =      -151.59591419
  atomic energy  EATOM  =       579.13436270
  ---------------------------------------------------
  free energy    TOTEN  =       -14.50088665 eV

  energy without entropy =      -14.50088665  energy(sigma->0) =      -14.50088665


--------------------------------------------------------------------------------------------------------




--------------------------------------- Iteration     13(  17)  ---------------------------------------


    POTLOK:  cpu time      0.1362: real time      0.1362
    SETDIJ:  cpu time      0.0758: real time      0.0758
    TRIAL :  cpu time      0.0965: real time      0.0965
    CORREC:  cpu time      0.2999: real time      0.2999
    CHARGE:  cpu time      0.0421: real time      0.0422
    --------------------------------------------
      LOOP:  cpu time      0.6553: real time      0.6645

 eigenvalue-minimisations  :     0
 total energy-change (2. order) :-0.4279497E-07  (-0.1967398E-07)
 number of electron       9.9999998 magnetization
 augmentation part        0.6574067 magnetization

 DIPCOR: dipole corrections for dipol
 direction  1 min pos     1, direction  2 min pos     1, direction  3 min pos     1,
 dipolmoment           0.000000     -0.000000     -0.035720 electrons x Angstroem
 Tr[quadrupol]         5.340605

 energy correction for charged system         0.000000 eV
 dipol+quadrupol energy correction           -0.000004 eV
 added-field ion interaction          0.000232 eV  (added to PSCEN)


 Free energy of the ion-electron system (eV)
  ---------------------------------------------------
  alpha Z        PSCENC =         0.05193562
  Ewald energy   TEWEN  =       203.96412046
  -Hartree energ DENC   =      -684.45090804
  -exchange      EXHF   =         0.00000000
  -V(xc)+E(xc)   XCENC  =        40.09935945
  PAW double counting   =       870.43679456     -872.13941451
  entropy T*S    EENTRO =        -0.00000000
  eigenvalues    EBANDS =      -151.59713692
  atomic energy  EATOM  =       579.13436270
  ---------------------------------------------------
  free energy    TOTEN  =       -14.50088669 eV

  energy without entropy =      -14.50088669  energy(sigma->0) =      -14.50088669


--------------------------------------------------------------------------------------------------------




--------------------------------------- Iteration     13(  18)  ---------------------------------------


    POTLOK:  cpu time      0.1361: real time      0.1361
    SETDIJ:  cpu time      0.0756: real time      0.0756
    TRIAL :  cpu time      0.0966: real time      0.0966
    CORREC:  cpu time      0.3032: real time      0.3032
    CHARGE:  cpu time      0.0432: real time      0.0432
    --------------------------------------------
      LOOP:  cpu time      0.6684: real time      0.6686

 eigenvalue-minimisations  :     0
 total energy-change (2. order) :-0.1944079E-07  (-0.4770223E-08)
 number of electron       9.9999998 magnetization
 augmentation part        0.6574062 magnetization

 DIPCOR: dipole corrections for dipol
 direction  1 min pos     1, direction  2 min pos     1, direction  3 min pos     1,
 dipolmoment          -0.000000      0.000000     -0.035722 electrons x Angstroem
 Tr[quadrupol]         5.340604

 energy correction for charged system         0.000000 eV
 dipol+quadrupol energy correction           -0.000004 eV
 added-field ion interaction          0.000232 eV  (added to PSCEN)


 Free energy of the ion-electron system (eV)
  ---------------------------------------------------
  alpha Z        PSCENC =         0.05193560
  Ewald energy   TEWEN  =       203.96412046
  -Hartree energ DENC   =      -684.45161335
  -exchange      EXHF   =         0.00000000
  -V(xc)+E(xc)   XCENC  =        40.09939893
  PAW double counting   =       870.44700707     -872.14962766
  entropy T*S    EENTRO =        -0.00000000
  eigenvalues    EBANDS =      -151.59647047
  atomic energy  EATOM  =       579.13436270
  ---------------------------------------------------
  free energy    TOTEN  =       -14.50088671 eV

  energy without entropy =      -14.50088671  energy(sigma->0) =      -14.50088671


--------------------------------------------------------------------------------------------------------




--------------------------------------- Iteration     13(  19)  ---------------------------------------


    POTLOK:  cpu time      0.1341: real time      0.1341
    SETDIJ:  cpu time      0.0756: real time      0.0756
    TRIAL :  cpu time      0.0968: real time      0.0969
    CORREC:  cpu time      0.3015: real time      0.3015
    EDDIAG:  cpu time      0.0533: real time      0.0533
    CHARGE:  cpu time      0.0439: real time      0.0439
    --------------------------------------------
      LOOP:  cpu time      0.7106: real time      0.7194

 eigenvalue-minimisations  :     0
 total energy-change (2. order) :-0.4485685E-08  (-0.1596540E-08)
 number of electron       9.9999998 magnetization
 augmentation part        0.6574066 magnetization

 DIPCOR: dipole corrections for dipol
 direction  1 min pos     1, direction  2 min pos     1, direction  3 min pos     1,
 dipolmoment          -0.000000     -0.000000     -0.035720 electrons x Angstroem
 Tr[quadrupol]         5.340602

 energy correction for charged system         0.000000 eV
 dipol+quadrupol energy correction           -0.000004 eV
 added-field ion interaction          0.000232 eV  (added to PSCEN)


 Free energy of the ion-electron system (eV)
  ---------------------------------------------------
  alpha Z        PSCENC =         0.05193561
  Ewald energy   TEWEN  =       203.96412046
  -Hartree energ DENC   =      -684.45141888
  -exchange      EXHF   =         0.00000000
  -V(xc)+E(xc)   XCENC  =        40.09938913
  PAW double counting   =       870.45160532     -872.15422461
  entropy T*S    EENTRO =        -0.00000000
  eigenvalues    EBANDS =      -151.59665644
  atomic energy  EATOM  =       579.13436270
  ---------------------------------------------------
  free energy    TOTEN  =       -14.50088672 eV

  energy without entropy =      -14.50088672  energy(sigma->0) =      -14.50088672


--------------------------------------------------------------------------------------------------------


  average scaling for gradient   1.9281


 average (electrostatic) potential at core
  the test charge radii are     0.6991  0.7215
  (the norm of the test charge is              1.0000)
       1 -61.7320       2 -83.5747



 E-fermi :  -8.6829     XC(G=0):  -0.0922     alpha+bet : -0.0207

 Fermi energy:        -8.6829427409

 k-point     1 :       0.0000    0.0000    0.0000
  band No.  band energies     occupation
      1     -29.3362      2.00000
      2     -14.0158      2.00000
      3     -11.7147      2.00000
      4     -11.7147      2.00000
      5      -9.0168      2.00000
      6      -2.0050      0.00000
      7      -2.0050      0.00000
      8      -0.1580      0.00000
      9       0.1323      0.00000
     10       0.2707      0.00000
     11       0.3184      0.00000
     12       0.3184      0.00000
     13       0.3538      0.00000
     14       0.3753      0.00000
     15       0.5471      0.00000
     16       0.5966      0.00000
     17       0.6034      0.00000
     18       0.6034      0.00000
     19       0.7026      0.00000
     20       0.7026      0.00000
     21       0.7080      0.00000
     22       0.7173      0.00000
     23       0.7351      0.00000
     24       0.7398      0.00000
     25       0.7398      0.00000
     26       0.7399      0.00000
     27       0.9839      0.00000
     28       1.0127      0.00000
     29       1.0127      0.00000
     30       1.0411      0.00000
     31       1.0617      0.00000
     32       1.0703      0.00000
     33       1.0703      0.00000
     34       1.0881      0.00000
     35       1.2618      0.00000
     36       1.2921      0.00000
     37       1.4020      0.00000
     38       1.4020      0.00000
     39       1.4327      0.00000
     40       1.4743      0.00000
     41       1.5280      0.00000
     42       1.6083      0.00000
     43       1.6394      0.00000
     44       1.6394      0.00000
     45       1.6867      0.00000
     46       1.6867      0.00000
     47       1.7078      0.00000
     48       1.7242      0.00000
     49       1.7401      0.00000
     50       1.7401      0.00000
     51       1.7549      0.00000
     52       1.7647      0.00000
     53       1.8022      0.00000
     54       1.8154      0.00000
     55       1.8173      0.00000
     56       1.8173      0.00000
     57       1.8300      0.00000
     58       1.8529      0.00000
     59       1.8529      0.00000
     60       1.8615      0.00000
     61       1.8746      0.00000
     62       1.8781      0.00000
     63       1.8781      0.00000
     64       1.8819      0.00000


--------------------------------------------------------------------------------------------------------


 soft charge-density along one line, spin component           1
         0         1         2         3         4         5         6         7         8         9
 total charge-density along one line

 pseudopotential strength for first ion, spin component:           1
 10.445  13.896   0.000   0.038   0.000  -0.000  -0.111  -0.000
 13.896  18.486   0.000   0.051   0.000  -0.000  -0.147  -0.000
  0.000   0.000  -4.447   0.000   0.000   8.693  -0.000  -0.000
  0.038   0.051   0.000  -4.506   0.000  -0.000   8.792  -0.000
  0.000   0.000   0.000   0.000  -4.447  -0.000  -0.000   8.693
 -0.000  -0.000   8.693  -0.000  -0.000 -19.136   0.000   0.000
 -0.111  -0.147  -0.000   8.792  -0.000   0.000 -19.297   0.000
 -0.000  -0.000  -0.000  -0.000   8.693   0.000   0.000 -19.136
 total augmentation occupancy for first ion, spin component:           1
  7.924  -3.646   0.000   2.160  -0.000   0.000   0.401  -0.000
 -3.646   2.053  -0.000  -1.642   0.000  -0.000  -0.245  -0.000
  0.000  -0.000   0.836  -0.000  -0.000   0.064   0.000   0.000
  2.160  -1.642  -0.000   2.261  -0.000   0.000   0.216   0.000
 -0.000   0.000  -0.000  -0.000   0.836   0.000  -0.000   0.064
  0.000  -0.000   0.064   0.000   0.000   0.005   0.000   0.000
  0.401  -0.245   0.000   0.216  -0.000   0.000   0.030   0.000
 -0.000  -0.000   0.000   0.000   0.064   0.000   0.000   0.005


------------------------ aborting loop because EDIFF is reached ----------------------------------------


    FORLOC:  cpu time      0.0027: real time      0.0027
    FORNL :  cpu time      0.0022: real time      0.0022
    STRESS:  cpu time      0.0639: real time      0.0639
    FORCOR:  cpu time      0.1034: real time      0.1034
    OFIELD:  cpu time      0.0002: real time      0.0002
    FORVDW:  cpu time      0.0007: real time      0.0007

  FORCE on cell =-STRESS in cart. coord.  units (eV):
  Direction    XX          YY          ZZ          XY          YZ          ZX
  --------------------------------------------------------------------------------------
  Alpha Z     0.05171     0.05171     0.05171
  Ewald     -31.59317   -31.59317   267.15044     0.00000    -0.00000    -0.00000
  Hartree   194.35283   194.35283   295.74582    -0.00000    -0.00000     0.00000
  E(xc)     -44.41695   -44.41695   -42.99324     0.00000     0.00000     0.00000
  Local    -297.97052  -297.97052  -670.85604     0.00000     0.00000    -0.00000
  n-local   -17.71015   -17.71015   -29.12137    -0.00000     0.00000    -0.00000
  augment     6.21535     6.21535     5.68458     0.00000    -0.00000     0.00000
  Kinetic   191.00512   191.00512   175.57425     0.00000    -0.00000    -0.00000
  Fock        0.00000     0.00000     0.00000     0.00000     0.00000     0.00000
  vdW        -0.00000    -0.00000    -0.00068     0.00000     0.00000     0.00000
  -------------------------------------------------------------------------------------
  Total      -0.06579    -0.06579     1.23546     0.00000    -0.00000     0.00000
  in kB      -0.01247    -0.01247     0.23424     0.00000    -0.00000     0.00000
  external pressure =        0.07 kB  Pullay stress =        0.00 kB


 VOLUME and BASIS-vectors are now :
 -----------------------------------------------------------------------------
  energy-cutoff  :      600.00
  volume of cell :     8450.53
      direct lattice vectors                 reciprocal lattice vectors
    20.000000000  0.000000000  0.000000000     0.050000000  0.000000000  0.000000000
     0.000000000 20.000000000  0.000000000     0.000000000  0.050000000  0.000000000
     0.000000000  0.000000000 21.126328287     0.000000000  0.000000000  0.047334302

  length of vectors
    20.000000000 20.000000000 21.126328287     0.050000000  0.050000000  0.047334302


 FORCES acting on ions:
    Electron-Ion                     Ewald-Force                    Non-Local-Force
 -----------------------------------------------------------------------------------------------
   -.265E-08 -.701E-09 0.238E+03   0.645E-16 0.721E-16 -.267E+03   -.645E-10 0.526E-08 0.277E+02
   -.370E-08 0.317E-07 -.207E+03   -.800E-16 -.860E-16 0.267E+03   0.480E-09 -.243E-07 -.596E+02
 -----------------------------------------------------------------------------------------------
   -.636E-08 0.309E-07 0.318E+02   -.154E-16 -.139E-16 0.000E+00   0.416E-09 -.191E-07 -.318E+02


 POSITION                                       TOTAL-FORCE (eV/Angst)
 -----------------------------------------------------------------------------------
     10.00000     10.00000      9.98987         0.000000     -0.000000     -1.154153
     10.00000     10.00000     11.12646        -0.000000      0.000000      1.154153
 -----------------------------------------------------------------------------------
    total drift:                               -0.000000      0.000000      0.000403


--------------------------------------------------------------------------------------------------------



  FREE ENERGIE OF THE ION-ELECTRON SYSTEM (eV)
  ---------------------------------------------------
  free  energy   TOTEN  =       -14.54297243 eV

  energy  without entropy=      -14.54297243  energy(sigma->0) =      -14.54297243

 d Force =-0.6971162E-03[-0.231E-01, 0.217E-01]  d Energy =-0.1654143E-03-0.532E-03
 d Force =-0.5255350E+01[-0.535E+01,-0.516E+01]  d Ewald  =-0.5254551E+01-0.799E-03


--------------------------------------------------------------------------------------------------------


    POTLOK:  cpu time      0.2110: real time      0.2110


--------------------------------------------------------------------------------------------------------


 Finite differences progress:
  Degree of freedom:   6/  6
  Displacement:        2/  2
  Total:              12/ 12

 SECOND DERIVATIVES (NOT SYMMETRIZED)
 ------------------------------------
               1X          1Y          1Z          2X          2Y          2Z
  1X    -0.013369    0.000000   -0.000626    0.013369   -0.000000    0.000626
  1Y    -0.001633   -0.013295   -0.000749    0.001633    0.013295    0.000749
  1Z    -0.000000    0.002366 -111.942927    0.000000   -0.002366  111.942927
  2X     0.004992   -0.000000    0.002042   -0.004992    0.000000   -0.002042
  2Y    -0.000187    0.001768    0.000078    0.000187   -0.001768   -0.000078
  2Z    -0.000000   -0.003660  111.929673    0.000000    0.003660 -111.929673


 Eigenvectors and eigenvalues of the dynamical matrix
 ----------------------------------------------------


   1 f  =   63.147006 THz   396.764338 2PiTHz 2106.357382 cm-1   261.154914 meV
             X         Y         Z           dx          dy          dz
     10.000000 10.000000  9.989866     0.000002   -0.000007    0.755800
     10.000000 10.000000 11.136462    -0.000006    0.000008   -0.654803

   2 f  =    0.609853 THz     3.831819 2PiTHz   20.342503 cm-1     2.522148 meV
             X         Y         Z           dx          dy          dz
     10.000000 10.000000  9.989866    -0.794304   -0.379787   -0.007616
     10.000000 10.000000 11.136462     0.452643    0.140789   -0.008791

   3 f  =    0.566574 THz     3.559892 2PiTHz   18.898890 cm-1     2.343163 meV
             X         Y         Z           dx          dy          dz
     10.000000 10.000000  9.989866    -0.357273    0.831602    0.020414
     10.000000 10.000000 11.136462     0.189584   -0.379317    0.023546

   4 f/i=    0.001823 THz     0.011453 2PiTHz    0.060803 cm-1     0.007539 meV
             X         Y         Z           dx          dy          dz
     10.000000 10.000000  9.989866     0.015887   -0.073044    0.650522
     10.000000 10.000000 11.136462     0.018345   -0.084315    0.750858

   5 f/i=    0.121626 THz     0.764198 2PiTHz    4.057002 cm-1     0.503004 meV
             X         Y         Z           dx          dy          dz
     10.000000 10.000000  9.989866     0.489676   -0.037277   -0.023725
     10.000000 10.000000 11.136462     0.862761   -0.114710   -0.027392

   6 f/i=    0.179710 THz     1.129154 2PiTHz    5.994496 cm-1     0.743222 meV
             X         Y         Z           dx          dy          dz
     10.000000 10.000000  9.989866     0.037438    0.396832    0.067457
     10.000000 10.000000 11.136462     0.120330    0.903344    0.077867

 Finite differences POTIM=   1.0000000000000000E-002
     LOOP+:  cpu time     14.0103: real time     14.1443
    4ORBIT:  cpu time      0.0000: real time      0.0000

 total amount of memory used by VASP MPI-rank0    79043. kBytes
=======================================================================

   base      :      30000. kBytes
   nonl-proj :       2826. kBytes
   fftplans  :      15799. kBytes
   grid      :      29568. kBytes
   one-center:          1. kBytes
   wavefun   :        849. kBytes



 General timing and accounting informations for this job:
 ========================================================

                  Total CPU time used (sec):      180.244
                            User time (sec):      177.808
                          System time (sec):        2.436
                         Elapsed time (sec):      194.320

                   Maximum memory used (kb):      193008.
                   Average memory used (kb):          N/A

                          Minor page faults:        27510
                          Major page faults:            0
                 Voluntary context switches:        19277
