 vasp.6.3.0 20Jan22 (build Mar 11 2022 13:48:16) complex

 executed on             LinuxIFC date 2023.12.26  18:08:52
 running on  304 total cores
 distrk:  each k-point on  304 cores,    1 groups
 distr:  one band on NCORE=   8 cores,   38 groups


--------------------------------------------------------------------------------------------------------


 INCAR:
   SYSTEM = MgO-rocksalt
   ISMEAR = 0
   SIGMA = 0.05
   EDIFF = 1E-7
   ALGO = ALL
   ISTART = 0
   IBRION = -1
   NSW = 0
   ISYM = 2
   ISIF = 2
   EDIFFG = -0.01
   DIPOL = 0.5 0.5 0.5
   IDIPOL = 3
   LDIPOL = .TRUE.
   LHFCALC = .TRUE.
   GGA = B5
   AEXX = 0.2
   AGGAX = 0.72
   AGGAC = 0.81
   ALDAC = 0.19
   IVDW = 1
   VDW_S6 = 1.05
   VDW_C6 = 1.75 0.70 0.63 0.70
   VDW_R0 = 1.452 1.342 1.243 1.342
   ENCUT = 600
   PREC = Accurate
   LASPH = .TRUE.
   LREAL = .FALSE.
   ISPIN = 1
   NELM = 200
   NELMIN = 8
   NCORE = 8
   KPAR = 1
   LWAVE = .FALSE.
   LCHARG = .FALSE.

 POTCAR:    PAW_PBE C 08Apr2002
 POTCAR:    PAW_PBE O 08Apr2002
 POTCAR:    PAW_PBE Mg_pv 13Apr2007
 POTCAR:    PAW_PBE O 08Apr2002
 -----------------------------------------------------------------------------
|                                                                             |
|           W    W    AA    RRRRR   N    N  II  N    N   GGGG   !!!           |
|           W    W   A  A   R    R  NN   N  II  NN   N  G    G  !!!           |
|           W    W  A    A  R    R  N N  N  II  N N  N  G       !!!           |
|           W WW W  AAAAAA  RRRRR   N  N N  II  N  N N  G  GGG   !            |
|           WW  WW  A    A  R   R   N   NN  II  N   NN  G    G                |
|           W    W  A    A  R    R  N    N  II  N    N   GGGG   !!!           |
|                                                                             |
|     For optimal performance we recommend to set                             |
|       NCORE = 2 up to number-of-cores-per-socket                            |
|     NCORE specifies how many cores store one orbital (NPAR=cpu/NCORE).      |
|     This setting can greatly improve the performance of VASP for DFT.       |
|     The default, NCORE=1 might be grossly inefficient on modern             |
|     multi-core architectures or massively parallel machines. Do your        |
|     own testing! More info at https://www.vasp.at/wiki/index.php/NCORE      |
|     Unfortunately you need to use the default for GW and RPA                |
|     calculations (for HF NCORE is supported but not extensively tested      |
|     yet).                                                                   |
|                                                                             |
 -----------------------------------------------------------------------------

 -----------------------------------------------------------------------------
|                                                                             |
|           W    W    AA    RRRRR   N    N  II  N    N   GGGG   !!!           |
|           W    W   A  A   R    R  NN   N  II  NN   N  G    G  !!!           |
|           W    W  A    A  R    R  N N  N  II  N N  N  G       !!!           |
|           W WW W  AAAAAA  RRRRR   N  N N  II  N  N N  G  GGG   !            |
|           WW  WW  A    A  R   R   N   NN  II  N   NN  G    G                |
|           W    W  A    A  R    R  N    N  II  N    N   GGGG   !!!           |
|                                                                             |
|     You have selected ISYM=2 for a HF type calculation. This will           |
|     symmetrize the charge density but not the exchange potential. I         |
|     suggest to use ISYM=3 instead. This uses symmetry to obtain the         |
|     orbitals at all k-points in the Brillouin zone, but does not apply      |
|     symmetry to the Hartree potential directly. The resultant charge        |
|     might have lower symmetry than the crystal but, at least, Hartree       |
|     and exchange are fully compatible.                                      |
|                                                                             |
 -----------------------------------------------------------------------------

 POTCAR:    PAW_PBE C 08Apr2002
   SHA256 =  253f7b50bb8d59471dbedb8285d89021f4a42ed1a2c5d38a03a736e69125dd95 C/POTCAR
   COPYR  = (c) Copyright 08Apr2002 Georg Kresse
   COPYR  = This file is part of the software VASP. Any use, copying, and all other rights are regul
   COPYR  = If you do not have a valid VASP license, you may not use, copy or distribute this file.
   VRHFIN =C: s2p2
   LEXCH  = PE
   EATOM  =   147.1560 eV,   10.8157 Ry

   TITEL  = PAW_PBE C 08Apr2002
   LULTRA =        F    use ultrasoft PP ?
   IUNSCR =        1    unscreen: 0-lin 1-nonlin 2-no
   RPACOR =    1.200    partial core radius
   POMASS =   12.011; ZVAL   =    4.000    mass and valenz
   RCORE  =    1.500    outmost cutoff radius
   RWIGS  =    1.630; RWIGS  =    0.863    wigner-seitz radius (au A)
   ENMAX  =  400.000; ENMIN  =  300.000 eV
   ICORE  =        2    local potential
   LCOR   =        T    correct aug charges
   LPAW   =        T    paw PP
   EAUG   =  644.873
   DEXC   =    0.000
   RMAX   =    1.529    core radius for proj-oper
   RAUG   =    1.300    factor for augmentation sphere
   RDEP   =    1.501    radius for radial grids
   RDEPT  =    1.300    core radius for aug-charge

   Atomic configuration
    4 entries
     n  l   j            E        occ.
     1  0  0.50      -273.3789   2.0000
     2  0  0.50       -13.7508   2.0000
     2  1  0.50        -5.2854   2.0000
     3  2  1.50        -5.4423   0.0000
   Description
     l       E           TYP  RCUT    TYP  RCUT
     0    -13.7508458     23  1.200
     0     -8.2022199     23  1.200
     1     -5.2854383     23  1.500
     1     34.0145650     23  1.500
     2     -5.4423304      7  1.500
  local pseudopotential read in
  partial core-charges read in
  partial kinetic energy density read in
  atomic valenz-charges read in
  non local Contribution for L=           0  read in
    real space projection operators read in
  non local Contribution for L=           0  read in
    real space projection operators read in
  non local Contribution for L=           1  read in
    real space projection operators read in
  non local Contribution for L=           1  read in
    real space projection operators read in
    PAW grid and wavefunctions read in

   number of l-projection  operators is LMAX  =           4
   number of lm-projection operators is LMMAX =           8

 POTCAR:    PAW_PBE O 08Apr2002
   SHA256 =  818f92134a0a090dccd8ba1447fa70422a3b330e708bb4f08108d8ae51209ddf O/POTCAR
   COPYR  = (c) Copyright 08Apr2002 Georg Kresse
   COPYR  = This file is part of the software VASP. Any use, copying, and all other rights are regul
   COPYR  = If you do not have a valid VASP license, you may not use, copy or distribute this file.
   VRHFIN =O: s2p4
   LEXCH  = PE
   EATOM  =   432.3788 eV,   31.7789 Ry

   TITEL  = PAW_PBE O 08Apr2002
   LULTRA =        F    use ultrasoft PP ?
   IUNSCR =        1    unscreen: 0-lin 1-nonlin 2-no
   RPACOR =    1.200    partial core radius
   POMASS =   16.000; ZVAL   =    6.000    mass and valenz
   RCORE  =    1.520    outmost cutoff radius
   RWIGS  =    1.550; RWIGS  =    0.820    wigner-seitz radius (au A)
   ENMAX  =  400.000; ENMIN  =  300.000 eV
   ICORE  =        2    local potential
   LCOR   =        T    correct aug charges
   LPAW   =        T    paw PP
   EAUG   =  605.392
   DEXC   =    0.000
   RMAX   =    1.553    core radius for proj-oper
   RAUG   =    1.300    factor for augmentation sphere
   RDEP   =    1.550    radius for radial grids
   RDEPT  =    1.329    core radius for aug-charge

   Atomic configuration
    4 entries
     n  l   j            E        occ.
     1  0  0.50      -514.6923   2.0000
     2  0  0.50       -23.9615   2.0000
     2  1  0.50        -9.0305   4.0000
     3  2  1.50        -9.5241   0.0000
   Description
     l       E           TYP  RCUT    TYP  RCUT
     0    -23.9615318     23  1.200
     0     -9.5240782     23  1.200
     1     -9.0304911     23  1.520
     1      8.1634956     23  1.520
     2     -9.5240782      7  1.500
  local pseudopotential read in
  partial core-charges read in
  partial kinetic energy density read in
  kinetic energy density of atom read in
  atomic valenz-charges read in
  non local Contribution for L=           0  read in
    real space projection operators read in
  non local Contribution for L=           0  read in
    real space projection operators read in
  non local Contribution for L=           1  read in
    real space projection operators read in
  non local Contribution for L=           1  read in
    real space projection operators read in
    PAW grid and wavefunctions read in

   number of l-projection  operators is LMAX  =           4
   number of lm-projection operators is LMMAX =           8

 POTCAR:    PAW_PBE Mg_pv 13Apr2007
   SHA256 =  f474ac0dd33840b9ae76c01d57fea79fdf77cdfbb07d5ade72c65f83c709b62b Mg_pv/POTCAR
   COPYR  = (c) Copyright 13Apr2007 Georg Kresse
   COPYR  = This file is part of the software VASP. Any use, copying, and all other rights are regul
   COPYR  = If you do not have a valid VASP license, you may not use, copy or distribute this file.
   VRHFIN =Mg: p6s2
   LEXCH  = PE
   EATOM  =  1056.7344 eV,   77.6678 Ry

   TITEL  = PAW_PBE Mg_pv 13Apr2007
   LULTRA =        F    use ultrasoft PP ?
   IUNSCR =        1    unscreen: 0-lin 1-nonlin 2-no
   RPACOR =    1.500    partial core radius
   POMASS =   24.305; ZVAL   =    8.000    mass and valenz
   RCORE  =    2.000    outmost cutoff radius
   RWIGS  =    2.000; RWIGS  =    1.058    wigner-seitz radius (au A)
   ENMAX  =  403.929; ENMIN  =  302.947 eV
   RCLOC  =    1.506    cutoff for local pot
   LCOR   =        T    correct aug charges
   LPAW   =        T    paw PP
   EAUG   =  758.780
   DEXC   =    0.000
   RMAX   =    2.045    core radius for proj-oper
   RAUG   =    1.300    factor for augmentation sphere
   RDEP   =    2.025    radius for radial grids
   RDEPT  =    1.557    core radius for aug-charge

   Atomic configuration
    5 entries
     n  l   j            E        occ.
     1  0  0.50     -1259.6230   2.0000
     2  0  0.50       -79.8442   2.0000
     2  1  1.50       -46.6121   6.0000
     3  0  0.50        -4.7055   2.0000
     3  2  1.50        -1.3606   0.0000
   Description
     l       E           TYP  RCUT    TYP  RCUT
     1    -46.6121073     23  1.600
     1      2.7211652     23  1.600
     0     -4.7054661     23  2.000
     0     61.2262170     23  2.000
     2     -1.3605826     23  2.000
  local pseudopotential read in
  partial core-charges read in
  partial kinetic energy density read in
  atomic valenz-charges read in
  non local Contribution for L=           1  read in
    real space projection operators read in
  non local Contribution for L=           1  read in
    real space projection operators read in
  non local Contribution for L=           0  read in
    real space projection operators read in
  non local Contribution for L=           0  read in
    real space projection operators read in
  non local Contribution for L=           2  read in
    real space projection operators read in
    PAW grid and wavefunctions read in

   number of l-projection  operators is LMAX  =           5
   number of lm-projection operators is LMMAX =          13

 POTCAR:    PAW_PBE O 08Apr2002
   SHA256 =  818f92134a0a090dccd8ba1447fa70422a3b330e708bb4f08108d8ae51209ddf O/POTCAR
   COPYR  = (c) Copyright 08Apr2002 Georg Kresse
   COPYR  = This file is part of the software VASP. Any use, copying, and all other rights are regul
   COPYR  = If you do not have a valid VASP license, you may not use, copy or distribute this file.
   VRHFIN =O: s2p4
   LEXCH  = PE
   EATOM  =   432.3788 eV,   31.7789 Ry

   TITEL  = PAW_PBE O 08Apr2002
   LULTRA =        F    use ultrasoft PP ?
   IUNSCR =        1    unscreen: 0-lin 1-nonlin 2-no
   RPACOR =    1.200    partial core radius
   POMASS =   16.000; ZVAL   =    6.000    mass and valenz
   RCORE  =    1.520    outmost cutoff radius
   RWIGS  =    1.550; RWIGS  =    0.820    wigner-seitz radius (au A)
   ENMAX  =  400.000; ENMIN  =  300.000 eV
   ICORE  =        2    local potential
   LCOR   =        T    correct aug charges
   LPAW   =        T    paw PP
   EAUG   =  605.392
   DEXC   =    0.000
   RMAX   =    1.553    core radius for proj-oper
   RAUG   =    1.300    factor for augmentation sphere
   RDEP   =    1.550    radius for radial grids
   RDEPT  =    1.329    core radius for aug-charge

   Atomic configuration
    4 entries
     n  l   j            E        occ.
     1  0  0.50      -514.6923   2.0000
     2  0  0.50       -23.9615   2.0000
     2  1  0.50        -9.0305   4.0000
     3  2  1.50        -9.5241   0.0000
   Description
     l       E           TYP  RCUT    TYP  RCUT
     0    -23.9615318     23  1.200
     0     -9.5240782     23  1.200
     1     -9.0304911     23  1.520
     1      8.1634956     23  1.520
     2     -9.5240782      7  1.500
  local pseudopotential read in
  partial core-charges read in
  partial kinetic energy density read in
  kinetic energy density of atom read in
  atomic valenz-charges read in
  non local Contribution for L=           0  read in
    real space projection operators read in
  non local Contribution for L=           0  read in
    real space projection operators read in
  non local Contribution for L=           1  read in
    real space projection operators read in
  non local Contribution for L=           1  read in
    real space projection operators read in
    PAW grid and wavefunctions read in

   number of l-projection  operators is LMAX  =           4
   number of lm-projection operators is LMMAX =           8

 -----------------------------------------------------------------------------
|                                                                             |
|               ----> ADVICE to this user running VASP <----                  |
|                                                                             |
|     You have a (more or less) 'large supercell' and for larger cells it     |
|     might be more efficient to use real-space projection operators.         |
|     Therefore, try LREAL= Auto in the INCAR file.                           |
|     Mind: For very accurate calculation, you might also keep the            |
|     reciprocal projection scheme (i.e. LREAL=.FALSE.).                      |
|                                                                             |
 -----------------------------------------------------------------------------

 -----------------------------------------------------------------------------
|                                                                             |
|               ----> ADVICE to this user running VASP <----                  |
|                                                                             |
|     You enforced a specific xc type in the INCAR file but a different       |
|     type was found in the POTCAR file.                                      |
|     I HOPE YOU KNOW WHAT YOU ARE DOING!                                     |
|                                                                             |
 -----------------------------------------------------------------------------

  PAW_PBE C 08Apr2002                   :
 energy of atom  1       EATOM= -147.1560
 kinetic energy error for atom=    0.0057 (will be added to EATOM!!)
  PAW_PBE O 08Apr2002                   :
 energy of atom  2       EATOM= -432.3788
 kinetic energy error for atom=    0.0168 (will be added to EATOM!!)
  PAW_PBE Mg_pv 13Apr2007               :
 energy of atom  3       EATOM=-1056.7344
 kinetic energy error for atom=    0.0221 (will be added to EATOM!!)
  PAW_PBE O 08Apr2002                   :
 energy of atom  4       EATOM= -432.3788
 kinetic energy error for atom=    0.0168 (will be added to EATOM!!)


 POSCAR:  C  O Mg  O
  positions in direct lattice
  velocities in cartesian coordinates
 exchange correlation table for  LEXCH =       12
   RHO(1)=    0.500       N(1)  =     2000
   RHO(2)=  100.500       N(2)  =     4000



--------------------------------------------------------------------------------------------------------


 ion  position               nearest neighbor table
   1  0.500  0.500  0.768-   2 1.13
   2  0.500  0.500  0.821-   1 1.13
   3  0.250  0.000  0.352-  37 2.10  38 2.10  45 2.10  54 2.10  35 2.10
   4  0.500  0.250  0.352-  37 2.10  38 2.10  46 2.10  53 2.10  36 2.10
   5  0.250  0.250  0.451-  35 2.10  36 2.10  43 2.10  52 2.10  37 2.10  41 2.11
   6  0.500  0.000  0.451-  35 2.10  36 2.10  44 2.10  51 2.10  38 2.10  42 2.11
   7  0.250  0.000  0.550-  42 2.10  41 2.10  49 2.10  58 2.10  35 2.11  39 2.13
   8  0.500  0.251  0.550-  50 2.10  41 2.10  57 2.10  42 2.11  36 2.12  40 2.13
   9  0.250  0.250  0.647-  41 2.09  39 2.10  56 2.10  47 2.10  40 2.10
  10  0.500  0.000  0.648-  42 2.09  40 2.09  48 2.09  39 2.10  55 2.10
  11  0.250  0.500  0.352-  37 2.10  45 2.10  46 2.10  62 2.10  43 2.10
  12  0.500  0.750  0.352-  38 2.10  45 2.10  46 2.10  61 2.10  44 2.10
  13  0.250  0.750  0.451-  35 2.10  43 2.10  44 2.10  60 2.10  45 2.10  49 2.11
  14  0.500  0.500  0.451-  36 2.10  43 2.10  44 2.10  59 2.10  46 2.10  50 2.12
  15  0.251  0.500  0.550-  50 2.10  49 2.10  41 2.10  66 2.11  43 2.12  47 2.13
  16  0.500  0.749  0.550-  50 2.10  49 2.10  65 2.10  42 2.11  44 2.12  48 2.13
  17  0.250  0.750  0.647-  49 2.09  39 2.10  64 2.10  47 2.10  48 2.10
  18  0.500  0.500  0.650-  40 2.11  47 2.11  48 2.11  63 2.11  50 2.13
  19  0.750  0.000  0.352-  38 2.10  53 2.10  54 2.10  61 2.10  51 2.10
  20  0.000  0.250  0.352-  37 2.10  53 2.10  54 2.10  62 2.10  52 2.10
  21  0.750  0.250  0.451-  36 2.10  51 2.10  52 2.10  59 2.10  53 2.10  57 2.11
  22  0.000  0.000  0.451-  35 2.10  51 2.10  52 2.10  60 2.10  54 2.10  58 2.11
  23  0.750  0.000  0.550-  42 2.10  57 2.10  65 2.10  58 2.10  51 2.11  55 2.13
  24  0.000  0.250  0.550-  66 2.10  57 2.10  41 2.10  58 2.10  52 2.11  56 2.13
  25  0.750  0.250  0.647-  57 2.09  56 2.10  55 2.10  40 2.10  63 2.10
  26  0.000  0.000  0.648-  58 2.09  55 2.10  56 2.10  39 2.10  64 2.10
  27  0.750  0.500  0.352-  46 2.10  53 2.10  61 2.10  62 2.10  59 2.10
  28  0.000  0.750  0.352-  45 2.10  54 2.10  61 2.10  62 2.10  60 2.10
  29  0.750  0.750  0.451-  44 2.10  51 2.10  59 2.10  60 2.10  61 2.10  65 2.11
  30  0.000  0.500  0.451-  43 2.10  52 2.10  59 2.10  60 2.10  62 2.10  66 2.11
  31  0.749  0.500  0.550-  50 2.10  57 2.10  65 2.10  66 2.11  59 2.12  63 2.13
  32  0.000  0.750  0.550-  66 2.10  65 2.10  49 2.10  58 2.10  60 2.11  64 2.13
  33  0.750  0.750  0.647-  65 2.09  64 2.10  55 2.10  48 2.10  63 2.10
  34  0.000  0.500  0.648-  66 2.09  63 2.09  47 2.09  64 2.10  56 2.10
  35  0.250  0.000  0.451-   5 2.10   6 2.10  13 2.10  22 2.10   3 2.10   7 2.11
  36  0.500  0.250  0.451-   5 2.10   6 2.10  14 2.10  21 2.10   4 2.10   8 2.12
  37  0.250  0.250  0.352-   3 2.10   4 2.10  11 2.10  20 2.10   5 2.10
  38  0.500  0.000  0.352-   3 2.10   4 2.10  12 2.10  19 2.10   6 2.10
  39  0.250  0.000  0.650-  26 2.10  17 2.10   9 2.10  10 2.10   7 2.13
  40  0.500  0.249  0.650-  10 2.09   9 2.10  25 2.10  18 2.11   8 2.13
  41  0.250  0.250  0.550-   9 2.09   7 2.10  24 2.10  15 2.10   8 2.10   5 2.11
  42  0.500  0.000  0.549-  10 2.09   7 2.10  23 2.10   6 2.11  16 2.11   8 2.11
  43  0.250  0.500  0.451-   5 2.10  13 2.10  14 2.10  30 2.10  11 2.10  15 2.12
  44  0.500  0.750  0.451-   6 2.10  13 2.10  14 2.10  29 2.10  12 2.10  16 2.12
  45  0.250  0.750  0.352-   3 2.10  11 2.10  12 2.10  28 2.10  13 2.10
  46  0.500  0.500  0.352-   4 2.10  11 2.10  12 2.10  27 2.10  14 2.10
  47  0.249  0.500  0.650-  34 2.09  17 2.10   9 2.10  18 2.11  15 2.13
  48  0.500  0.751  0.650-  10 2.09  17 2.10  33 2.10  18 2.11  16 2.13
  49  0.250  0.750  0.550-  17 2.09   7 2.10  32 2.10  15 2.10  16 2.10  13 2.11
  50  0.500  0.500  0.550-   8 2.10  15 2.10  16 2.10  31 2.10  14 2.12  18 2.13
  51  0.750  0.000  0.451-   6 2.10  21 2.10  22 2.10  29 2.10  19 2.10  23 2.11
  52  0.000  0.250  0.451-   5 2.10  21 2.10  22 2.10  30 2.10  20 2.10  24 2.11
  53  0.750  0.250  0.352-   4 2.10  19 2.10  20 2.10  27 2.10  21 2.10
  54  0.000  0.000  0.352-   3 2.10  19 2.10  20 2.10  28 2.10  22 2.10
  55  0.750  0.000  0.650-  26 2.10  25 2.10  33 2.10  10 2.10  23 2.13
  56  0.000  0.250  0.650-  26 2.10  25 2.10   9 2.10  34 2.10  24 2.13
  57  0.750  0.250  0.550-  25 2.09  24 2.10  23 2.10   8 2.10  31 2.10  21 2.11
  58  0.000  0.000  0.550-  26 2.09  23 2.10  24 2.10   7 2.10  32 2.10  22 2.11
  59  0.750  0.500  0.451-  14 2.10  21 2.10  29 2.10  30 2.10  27 2.10  31 2.12
  60  0.000  0.750  0.451-  13 2.10  22 2.10  29 2.10  30 2.10  28 2.10  32 2.11
  61  0.750  0.750  0.352-  12 2.10  19 2.10  27 2.10  28 2.10  29 2.10
  62  0.000  0.500  0.352-  11 2.10  20 2.10  27 2.10  28 2.10  30 2.10
  63  0.751  0.500  0.650-  34 2.09  33 2.10  25 2.10  18 2.11  31 2.13
  64  0.000  0.750  0.650-  26 2.10  17 2.10  33 2.10  34 2.10  32 2.13
  65  0.750  0.750  0.550-  33 2.09  32 2.10  23 2.10  16 2.10  31 2.10  29 2.11
  66  0.000  0.500  0.549-  34 2.09  32 2.10  24 2.10  30 2.11  15 2.11  31 2.11

  LATTYP: Found a simple tetragonal cell.
 ALAT       =     8.4048619950
 C/A-ratio  =     2.5346812963

  Lattice vectors:

 A1 = (   8.4048619950,   0.0000000000,   0.0000000000)
 A2 = (   0.0000000000,   8.4048619950,   0.0000000000)
 A3 = (   0.0000000000,   0.0000000000,  21.3036464962)


Analysis of symmetry for initial positions (statically):
=====================================================================
 Subroutine PRICEL returns:
 Original cell was already a primitive cell.


 Routine SETGRP: Setting up the symmetry group for a
 simple tetragonal supercell.


 Subroutine GETGRP returns: Found  8 space group operations
 (whereof  8 operations were pure point group operations)
 out of a pool of 16 trial point group operations.


The static configuration has the point symmetry C_4v.


Analysis of symmetry for dynamics (positions and initial velocities):
=====================================================================
 Subroutine PRICEL returns:
 Original cell was already a primitive cell.


 Routine SETGRP: Setting up the symmetry group for a
 simple tetragonal supercell.


 Subroutine GETGRP returns: Found  8 space group operations
 (whereof  8 operations were pure point group operations)
 out of a pool of 16 trial point group operations.


The dynamic configuration has the point symmetry C_4v.


Analysis of constrained symmetry for selective dynamics:
=====================================================================
 Subroutine PRICEL returns:
 Original cell was already a primitive cell.


 Routine SETGRP: Setting up the symmetry group for a
 simple tetragonal supercell.


 Subroutine GETGRP returns: Found  8 space group operations
 (whereof  8 operations were pure point group operations)
 out of a pool of 16 trial point group operations.


The constrained configuration has the point symmetry C_4v.


 Subroutine INISYM returns: Found  8 space group operations
 (whereof  8 operations are pure point group operations),
 and found     1 'primitive' translations


----------------------------------------------------------------------------------------

                                     Primitive cell

  volume of cell :    1504.9259

  direct lattice vectors                    reciprocal lattice vectors
     8.404861995  0.000000000  0.000000000     0.118978753  0.000000000  0.000000000
     0.000000000  8.404861995  0.000000000     0.000000000  0.118978753  0.000000000
     0.000000000  0.000000000 21.303646496     0.000000000  0.000000000  0.046940321

  length of vectors
     8.404861995  8.404861995 21.303646496     0.118978753  0.118978753  0.046940321

  position of ions in fractional coordinates (direct lattice)
     0.500000000  0.500000000  0.767731706
     0.500000000  0.500000000  0.820774347
     0.250000000  0.000000000  0.352052406
     0.500000000  0.250000000  0.352052406
     0.250000000  0.250000000  0.450684135
     0.500000000  0.000000000  0.450684135
     0.250107473  0.000000000  0.549739955
     0.500000000  0.250518132  0.550013704
     0.249743486  0.249743486  0.647447924
     0.500000000  0.000000000  0.647579443
     0.250000000  0.500000000  0.352052406
     0.500000000  0.750000000  0.352052406
     0.250000000  0.750000000  0.450684135
     0.500000000  0.500000000  0.450684135
     0.250518132  0.500000000  0.550013704
     0.500000000  0.749481868  0.550013704
     0.249743486  0.750256514  0.647447924
     0.500000000  0.500000000  0.650192045
     0.750000000  0.000000000  0.352052406
     0.000000000  0.250000000  0.352052406
     0.750000000  0.250000000  0.450684135
     0.000000000  0.000000000  0.450684135
     0.749892527  0.000000000  0.549739955
     0.000000000  0.250107473  0.549739955
     0.750256514  0.249743486  0.647447924
     0.000000000  0.000000000  0.647677188
     0.750000000  0.500000000  0.352052406
     0.000000000  0.750000000  0.352052406
     0.750000000  0.750000000  0.450684135
     0.000000000  0.500000000  0.450684135
     0.749481868  0.500000000  0.550013704
     0.000000000  0.749892527  0.549739955
     0.750256514  0.750256514  0.647447924
     0.000000000  0.500000000  0.647579443
     0.250000000  0.000000000  0.450684135
     0.500000000  0.250000000  0.450684135
     0.250000000  0.250000000  0.352052406
     0.500000000  0.000000000  0.352052406
     0.249742882  0.000000000  0.649806243
     0.500000000  0.248885363  0.649916189
     0.249962043  0.249962043  0.549551754
     0.500000000  0.000000000  0.549498077
     0.250000000  0.500000000  0.450684135
     0.500000000  0.750000000  0.450684135
     0.250000000  0.750000000  0.352052406
     0.500000000  0.500000000  0.352052406
     0.248885363  0.500000000  0.649916189
     0.500000000  0.751114637  0.649916189
     0.249962043  0.750037957  0.549551754
     0.500000000  0.500000000  0.550007089
     0.750000000  0.000000000  0.450684135
     0.000000000  0.250000000  0.450684135
     0.750000000  0.250000000  0.352052406
     0.000000000  0.000000000  0.352052406
     0.750257118  0.000000000  0.649806243
     0.000000000  0.249742882  0.649806243
     0.750037957  0.249962043  0.549551754
     0.000000000  0.000000000  0.549517757
     0.750000000  0.500000000  0.450684135
     0.000000000  0.750000000  0.450684135
     0.750000000  0.750000000  0.352052406
     0.000000000  0.500000000  0.352052406
     0.751114637  0.500000000  0.649916189
     0.000000000  0.750257118  0.649806243
     0.750037957  0.750037957  0.549551754
     0.000000000  0.500000000  0.549498077

  ion indices of the primitive-cell ions
   primitive index   ion index
                 1           1
                 2           2
                 3           3
                 4           4
                 5           5
                 6           6
                 7           7
                 8           8
                 9           9
                10          10
                11          11
                12          12
                13          13
                14          14
                15          15
                16          16
                17          17
                18          18
                19          19
                20          20
                21          21
                22          22
                23          23
                24          24
                25          25
                26          26
                27          27
                28          28
                29          29
                30          30
                31          31
                32          32
                33          33
                34          34
                35          35
                36          36
                37          37
                38          38
                39          39
                40          40
                41          41
                42          42
                43          43
                44          44
                45          45
                46          46
                47          47
                48          48
                49          49
                50          50
                51          51
                52          52
                53          53
                54          54
                55          55
                56          56
                57          57
                58          58
                59          59
                60          60
                61          61
                62          62
                63          63
                64          64
                65          65
                66          66

----------------------------------------------------------------------------------------



 KPOINTS: pymatgen v2020.8.13 with grid density =

Automatic generation of k-mesh.
 Grid dimensions read from file:
 generate k-points for:    2    2    1

 Generating k-lattice:

  Cartesian coordinates                     Fractional coordinates (reciprocal lattice)
     0.059489377  0.000000000  0.000000000     0.500000000  0.000000000  0.000000000
     0.000000000  0.059489377  0.000000000     0.000000000  0.500000000  0.000000000
     0.000000000  0.000000000  0.046940321     0.000000000  0.000000000  1.000000000

  Length of vectors
     0.059489377  0.059489377  0.046940321

  Shift w.r.t. Gamma in fractional coordinates (k-lattice)
     0.000000000  0.000000000  0.000000000


 Subroutine IBZKPT returns following result:
 ===========================================

 Found      3 irreducible k-points:

 Following reciprocal coordinates:
            Coordinates               Weight
  0.000000  0.000000  0.000000      1.000000
  0.500000  0.000000  0.000000      2.000000
  0.500000  0.500000  0.000000      1.000000

 Following cartesian coordinates:
            Coordinates               Weight
  0.000000  0.000000  0.000000      1.000000
  0.059489  0.000000  0.000000      2.000000
  0.059489  0.059489  0.000000      1.000000


 Subroutine IBZKPT_HF returns following result:
 ==============================================

 Found      4 k-points in 1st BZ
 the following      4 k-points will be used (e.g. in the exchange kernel)
 Following reciprocal coordinates:   # in IRBZ
  0.000000  0.000000  0.000000    0.25000000   1 t-inv F
  0.500000  0.000000  0.000000    0.25000000   2 t-inv F
  0.500000  0.500000  0.000000    0.25000000   3 t-inv F
  0.000000  0.500000  0.000000    0.25000000   2 t-inv F


--------------------------------------------------------------------------------------------------------




 Dimension of arrays:
   k-points           NKPTS =      3   k-points in BZ     NKDIM =      4   number of bands    NBANDS=    304
   number of dos      NEDOS =    301   number of ions     NIONS =     66
   non local maximal  LDIM  =      5   non local SUM 2l+1 LMDIM =     13
   total plane-waves  NPLWV = 882000
   max r-space proj   IRMAX =      1   max aug-charges    IRDMAX=  11749
   dimension x,y,z NGX =    70 NGY =   70 NGZ =  180
   dimension x,y,z NGXF=   140 NGYF=  140 NGZF=  360
   support grid    NGXF=   140 NGYF=  140 NGZF=  360
   ions per type =               1   1  32  32
   NGX,Y,Z   is equivalent  to a cutoff of  13.85, 13.85, 14.05 a.u.
   NGXF,Y,Z  is equivalent  to a cutoff of  27.69, 27.69, 28.09 a.u.

 SYSTEM =  MgO-rocksalt
 POSCAR =   C  O Mg  O

 Startparameter for this run:
   NWRITE =      2    write-flag & timer
   PREC   = accura    normal or accurate (medium, high low for compatibility)
   ISTART =      0    job   : 0-new  1-cont  2-samecut
   ICHARG =      2    charge: 1-file 2-atom 10-const
   ISPIN  =      1    spin polarized calculation?
   LNONCOLLINEAR =      F non collinear calculations
   LSORBIT =      F    spin-orbit coupling
   INIWAV =      1    electr: 0-lowe 1-rand  2-diag
   LASPH  =      T    aspherical Exc in radial PAW
 Electronic Relaxation 1
   ENCUT  =  600.0 eV  44.10 Ry    6.64 a.u.  16.79 16.79 42.55*2*pi/ulx,y,z
   ENINI  =  600.0     initial cutoff
   ENAUG  =  758.8 eV  augmentation charge cutoff
   NELM   =    200;   NELMIN=  8; NELMDL= -5     # of ELM steps
   EDIFF  = 0.1E-06   stopping-criterion for ELM
   LREAL  =      F    real-space projection
   NLSPLINE    = F    spline interpolate recip. space projectors
   LCOMPAT=      F    compatible to vasp.4.4
   GGA_COMPAT  = T    GGA compatible to vasp.4.4-vasp.4.6
   LMAXPAW     = -100 max onsite density
   LMAXMIX     =    2 max onsite mixed and CHGCAR
   VOSKOWN=      0    Vosko Wilk Nusair interpolation
   ROPT   =    0.00000   0.00000   0.00000   0.00000
 Ionic relaxation
   EDIFFG = -.1E-01   stopping-criterion for IOM
   NSW    =      0    number of steps for IOM
   NBLOCK =      1;   KBLOCK =      1    inner block; outer block
   IBRION =     -1    ionic relax: 0-MD 1-quasi-New 2-CG
   NFREE  =      0    steps in history (QN), initial steepest desc. (CG)
   ISIF   =      2    stress and relaxation
   IWAVPR =     10    prediction:  0-non 1-charg 2-wave 3-comb
   ISYM   =      2    0-nonsym 1-usesym 2-fastsym
   LCORR  =      T    Harris-Foulkes like correction to forces

   POTIM  = 0.5000    time-step for ionic-motion
   TEIN   =    0.0    initial temperature
   TEBEG  =    0.0;   TEEND  =   0.0 temperature during run
   SMASS  =  -3.00    Nose mass-parameter (am)
   estimated Nose-frequenzy (Omega)   =  0.10E-29 period in steps = 0.13E+47 mass=  -0.161E-26a.u.
   SCALEE = 1.0000    scale energy and forces
   NPACO  =    256;   APACO  = 10.0  distance and # of slots for P.C.
   PSTRESS=    0.0 pullay stress

  Mass of Ions in am
   POMASS =  12.01 16.00 24.30 16.00
  Ionic Valenz
   ZVAL   =   4.00  6.00  8.00  6.00
  Atomic Wigner-Seitz radii
   RWIGS  =  -1.00 -1.00 -1.00 -1.00
  virtual crystal weights
   VCA    =   1.00  1.00  1.00  1.00
   NELECT =     458.0000    total number of electrons
   NUPDOWN=      -1.0000    fix difference up-down

 DOS related values:
   EMIN   =  10.00;   EMAX   =-10.00  energy-range for DOS
   EFERMI =   0.00
   ISMEAR =     0;   SIGMA  =   0.05  broadening in eV -4-tet -1-fermi 0-gaus

 Electronic relaxation 2 (details)
   IALGO  =     58    algorithm
   LDIAG  =      T    sub-space diagonalisation (order eigenvalues)
   LSUBROT=      F    optimize rotation matrix (better conditioning)
   TURBO    =      0    0=normal 1=particle mesh
   IRESTART =      0    0=no restart 2=restart with 2 vectors
   NREBOOT  =      0    no. of reboots
   NMIN     =      0    reboot dimension
   EREF     =   0.00    reference energy to select bands
   IMIX   =      4    mixing-type and parameters
     AMIX     =   0.40;   BMIX     =  1.00
     AMIX_MAG =   1.60;   BMIX_MAG =  1.00
     AMIN     =   0.10
     WC   =   100.;   INIMIX=   1;  MIXPRE=   1;  MAXMIX= -45

 Intra band minimization:
   WEIMIN = 0.0000     energy-eigenvalue tresh-hold
   EBREAK =  0.82E-10  absolut break condition
   DEPER  =   0.30     relativ break condition

   TIME   =   0.40     timestep for ELM

  volume/ion in A,a.u.               =      22.80       153.87
  Fermi-wavevector in a.u.,A,eV,Ry     =   1.101180  2.080928 16.498387  1.212597
  Thomas-Fermi vector in A             =   2.237603

 Write flags
   LWAVE        =      F    write WAVECAR
   LDOWNSAMPLE  =      F    k-point downsampling of WAVECAR
   LCHARG       =      F    write CHGCAR
   LVTOT        =      F    write LOCPOT, total local potential
   LVHAR        =      F    write LOCPOT, Hartree potential only
   LELF         =      F    write electronic localiz. function (ELF)
   LORBIT       =      0    0 simple, 1 ext, 2 COOP (PROOUT), +10 PAW based schemes


 Dipole corrections
   LMONO  =      F    monopole corrections only (constant potential shift)
   LDIPOL =      T    correct potential (dipole corrections)
   IDIPOL =      3    1-x, 2-y, 3-z, 4-all directions
   EPSILON=  1.0000000 bulk dielectric constant

 Exchange correlation treatment:
   GGA     =    B5    GGA type
   LEXCH   =    12    internal setting for exchange type
   LIBXC   =     F    Libxc
   VOSKOWN =     0    Vosko Wilk Nusair interpolation
   EXXOEP  =     0    0=HF, 1=EXX-LHF (local Hartree Fock) 2=EXX OEP
   LHFCALC =     T    Hartree Fock is set to
   LSYMGRAD=     F    symmetrize gradient (conserves proper symmetry)
   PRECFOCK=normal    Normal, Fast or Accurate (Low or Medium for compatibility)
   LRHFCALC=     F    long range Hartree Fock
   LRSCOR  =     F    long range correlation only (use DFT for short range part)
   LTHOMAS =     F    Thomas Fermi screening in HF
   LMODELHF=     F    short range full HF, long range fraction AEXX
   LFOCKACE=     T    use Adeptively-Compressed-Exchange operator
   ENCUT4O =  -1.0   cutoff for four orbital integrals eV
   LMAXFOCK=     4    L truncation for augmentation on plane wave grid
   LMAXFOCKAE=  -1    L truncation for all-electron charge restoration on plane wave grid
   NMAXFOCKAE=   1    number of basis functions for all-electron charge restoration
   LFOCKAEDFT=     F  apply the AE augmentation even for DFT
   NKREDX  =     1    reduce k-point grid by
   NKREDY  =     1    reduce k-point grid by
   NKREDZ  =     1    reduce k-point grid by
   SHIFTRED=     F    shift reduced grid of Gamma
   HFKIDENT=     F    idential grid for each k-point
   ODDONLY =     F    use only odd q-grid points
   EVENONLY=     F    use only even q-grid points
   HFALPHA =   -1.0000 decay constant for conv. correction
   MCALPHA =    0.0000 extent of test-charge in conv. correction in multipole expansion
   AEXX    =    0.2000 exact exchange contribution
   HFSCREEN=    0.0000 screening length (either q_TF or 0.3 A-1)
   HFSCREENC=   0.0000 screening length for correlation (either q_TF or 0.3 A-1)
   HFRCUT  =    0.0000 spherical cutoff for potential kernel
   ALDAX   =    0.8000 LDA exchange part
   AGGAX   =    0.7200 GGA exchange part
   ALDAC   =    0.1900 LDA correlation
   AGGAC   =    0.8100 GGA correlation
   ENCUTFOCK=  -1.0 apply spherical cutoff to Coloumb kernel
   NBANDSGWLOW=     1    first orbital included in HF term
   NBLOCK_FOCK=    64    blocking factor in FOCK_ACC

 Linear response parameters
   LEPSILON=     F    determine dielectric tensor
   LRPA    =     F    only Hartree local field effects (RPA)
   LNABLA  =     F    use nabla operator in PAW spheres
   LVEL    =     F    velocity operator in full k-point grid
   CSHIFT  =0.1000    complex shift for real part using Kramers Kronig
   OMEGAMAX=  -1.0    maximum frequency
   DEG_THRESHOLD= 0.2000000E-02 threshold for treating states as degnerate
   RTIME   =   -0.100 relaxation time in fs
  (WPLASMAI=    0.000 imaginary part of plasma frequency in eV, 0.658/RTIME)
   DFIELD  = 0.0000000 0.0000000 0.0000000 field for delta impulse in time

  Optional k-point grid parameters
   LKPOINTS_OPT  =     F    use optional k-point grid
   KPOINTS_OPT_MODE=     1    mode for optional k-point grid

 Orbital magnetization related:
   ORBITALMAG=     F  switch on orbital magnetization
   LCHIMAG   =     F  perturbation theory with respect to B field
   DQ        =  0.001000  dq finite difference perturbation B field
   LLRAUG    =     F  two centre corrections for induced B field



--------------------------------------------------------------------------------------------------------


 Static calculation
 charge density and potential will be updated during run
 non-spin polarized calculation
 Conjugate gradient for all bands (Freysoldt, et al. PRB 79, 241103 (2009))
 preconditioned conjugated gradient
 perform sub-space diagonalisation
    before iterative eigenvector-optimisation
 modified Broyden-mixing scheme, WC =      100.0
 initial mixing is a Kerker type mixing with AMIX =  0.4000 and BMIX =      1.0000
 Hartree-type preconditioning will be used
 using additional bands           75
 reciprocal scheme for non local part
 use partial core corrections
 no Harris-corrections to forces
 use gradient corrections
 use of overlap-Matrix (Vanderbilt PP)
 Gauss-broadening in eV      SIGMA  =   0.05


--------------------------------------------------------------------------------------------------------


  energy-cutoff  :      600.00
  volume of cell :     1504.93
      direct lattice vectors                 reciprocal lattice vectors
     8.404861995  0.000000000  0.000000000     0.118978753  0.000000000  0.000000000
     0.000000000  8.404861995  0.000000000     0.000000000  0.118978753  0.000000000
     0.000000000  0.000000000 21.303646496     0.000000000  0.000000000  0.046940321

  length of vectors
     8.404861995  8.404861995 21.303646496     0.118978753  0.118978753  0.046940321



 k-points in units of 2pi/SCALE and weight: pymatgen v2020.8.13 with grid density =
   0.00000000  0.00000000  0.00000000       0.250
   0.05948938  0.00000000  0.00000000       0.500
   0.05948938  0.05948938  0.00000000       0.250

 k-points in reciprocal lattice and weights: pymatgen v2020.8.13 with grid density =
   0.00000000  0.00000000  0.00000000       0.250
   0.50000000  0.00000000  0.00000000       0.500
   0.50000000  0.50000000  0.00000000       0.250

 position of ions in fractional coordinates (direct lattice)
   0.50000000  0.50000000  0.76773171
   0.50000000  0.50000000  0.82077435
   0.25000000  0.00000000  0.35205241
   0.50000000  0.25000000  0.35205241
   0.25000000  0.25000000  0.45068414
   0.50000000  0.00000000  0.45068414
   0.25010747  0.00000000  0.54973995
   0.50000000  0.25051813  0.55001370
   0.24974349  0.24974349  0.64744792
   0.50000000  0.00000000  0.64757944
   0.25000000  0.50000000  0.35205241
   0.50000000  0.75000000  0.35205241
   0.25000000  0.75000000  0.45068414
   0.50000000  0.50000000  0.45068414
   0.25051813  0.50000000  0.55001370
   0.50000000  0.74948187  0.55001370
   0.24974349  0.75025651  0.64744792
   0.50000000  0.50000000  0.65019204
   0.75000000  0.00000000  0.35205241
   0.00000000  0.25000000  0.35205241
   0.75000000  0.25000000  0.45068414
   0.00000000  0.00000000  0.45068414
   0.74989253  0.00000000  0.54973995
   0.00000000  0.25010747  0.54973995
   0.75025651  0.24974349  0.64744792
   0.00000000  0.00000000  0.64767719
   0.75000000  0.50000000  0.35205241
   0.00000000  0.75000000  0.35205241
   0.75000000  0.75000000  0.45068414
   0.00000000  0.50000000  0.45068414
   0.74948187  0.50000000  0.55001370
   0.00000000  0.74989253  0.54973995
   0.75025651  0.75025651  0.64744792
   0.00000000  0.50000000  0.64757944
   0.25000000  0.00000000  0.45068414
   0.50000000  0.25000000  0.45068414
   0.25000000  0.25000000  0.35205241
   0.50000000  0.00000000  0.35205241
   0.24974288  0.00000000  0.64980624
   0.50000000  0.24888536  0.64991619
   0.24996204  0.24996204  0.54955175
   0.50000000  0.00000000  0.54949808
   0.25000000  0.50000000  0.45068414
   0.50000000  0.75000000  0.45068414
   0.25000000  0.75000000  0.35205241
   0.50000000  0.50000000  0.35205241
   0.24888536  0.50000000  0.64991619
   0.50000000  0.75111464  0.64991619
   0.24996204  0.75003796  0.54955175
   0.50000000  0.50000000  0.55000709
   0.75000000  0.00000000  0.45068414
   0.00000000  0.25000000  0.45068414
   0.75000000  0.25000000  0.35205241
   0.00000000  0.00000000  0.35205241
   0.75025712  0.00000000  0.64980624
   0.00000000  0.24974288  0.64980624
   0.75003796  0.24996204  0.54955175
   0.00000000  0.00000000  0.54951776
   0.75000000  0.50000000  0.45068414
   0.00000000  0.75000000  0.45068414
   0.75000000  0.75000000  0.35205241
   0.00000000  0.50000000  0.35205241
   0.75111464  0.50000000  0.64991619
   0.00000000  0.75025712  0.64980624
   0.75003796  0.75003796  0.54955175
   0.00000000  0.50000000  0.54949808

 position of ions in cartesian coordinates  (Angst):
   4.20243100  4.20243100 16.35548488
   4.20243100  4.20243100 17.48548653
   2.10121550  0.00000000  7.50000000
   4.20243100  2.10121550  7.50000000
   2.10121550  2.10121550  9.60121550
   4.20243100  0.00000000  9.60121550
   2.10211880  0.00000000 11.71146566
   4.20243100  2.10557033 11.71729751
   2.09905953  2.09905953 13.79300169
   4.20243100  0.00000000 13.79580352
   2.10121550  4.20243100  7.50000000
   4.20243100  6.30364650  7.50000000
   2.10121550  6.30364650  9.60121550
   4.20243100  4.20243100  9.60121550
   2.10557033  4.20243100 11.71729751
   4.20243100  6.29929167 11.71729751
   2.09905953  6.30580246 13.79300169
   4.20243100  4.20243100 13.85146147
   6.30364650  0.00000000  7.50000000
   0.00000000  2.10121550  7.50000000
   6.30364650  2.10121550  9.60121550
   0.00000000  0.00000000  9.60121550
   6.30274320  0.00000000 11.71146566
   0.00000000  2.10211880 11.71146566
   6.30580246  2.09905953 13.79300169
   0.00000000  0.00000000 13.79788585
   6.30364650  4.20243100  7.50000000
   0.00000000  6.30364650  7.50000000
   6.30364650  6.30364650  9.60121550
   0.00000000  4.20243100  9.60121550
   6.29929167  4.20243100 11.71729751
   0.00000000  6.30274320 11.71146566
   6.30580246  6.30580246 13.79300169
   0.00000000  4.20243100 13.79580352
   2.10121550  0.00000000  9.60121550
   4.20243100  2.10121550  9.60121550
   2.10121550  2.10121550  7.50000000
   4.20243100  0.00000000  7.50000000
   2.09905446  0.00000000 13.84324249
   4.20243100  2.09184713 13.84558474
   2.10089647  2.10089647 11.70745629
   4.20243100  0.00000000 11.70631278
   2.10121550  4.20243100  9.60121550
   4.20243100  6.30364650  9.60121550
   2.10121550  6.30364650  7.50000000
   4.20243100  4.20243100  7.50000000
   2.09184713  4.20243100 13.84558474
   4.20243100  6.31301486 13.84558474
   2.10089647  6.30396552 11.70745629
   4.20243100  4.20243100 11.71715660
   6.30364650  0.00000000  9.60121550
   0.00000000  2.10121550  9.60121550
   6.30364650  2.10121550  7.50000000
   0.00000000  0.00000000  7.50000000
   6.30580754  0.00000000 13.84324249
   0.00000000  2.09905446 13.84324249
   6.30396552  2.10089647 11.70745629
   0.00000000  0.00000000 11.70673204
   6.30364650  4.20243100  9.60121550
   0.00000000  6.30364650  9.60121550
   6.30364650  6.30364650  7.50000000
   0.00000000  4.20243100  7.50000000
   6.31301486  4.20243100 13.84558474
   0.00000000  6.30580754 13.84324249
   6.30396552  6.30396552 11.70745629
   0.00000000  4.20243100 11.70631278



--------------------------------------------------------------------------------------------------------


 k-point   1 :   0.0000 0.0000 0.0000  plane waves:   50225
 k-point   2 :   0.5000 0.0000 0.0000  plane waves:   50238
 k-point   3 :   0.5000 0.5000 0.0000  plane waves:   50216

 maximum and minimum number of plane-waves per node :      6318     6238

 maximum number of plane-waves:     50238
 maximum index in each direction:
   IXMAX=   16   IYMAX=   16   IZMAX=   42
   IXMIN=  -17   IYMIN=  -17   IZMIN=  -42


 parallel 3D FFT for wavefunctions:
    minimum data exchange during FFTs selected (reduces bandwidth)
 parallel 3D FFT for charge:
    minimum data exchange during FFTs selected (reduces bandwidth)


 FFT grid for exact exchange (Hartree Fock)
  NGX = 54; NGY = 54; NGZ =140


 Radii for the augmentation spheres in the non-local exchange
 for species   1 augmentation radius   0.874 (default was   0.699)
       energy cutoff for augmentation   2400.0
 for species   2 augmentation radius   0.902 (default was   0.722)
       energy cutoff for augmentation   2400.0
 for species   3 augmentation radius   1.037 (default was   0.829)
       energy cutoff for augmentation   2400.0
 for species   4 augmentation radius   0.902 (default was   0.722)
       energy cutoff for augmentation   2400.0

 real space projection operators:
  total allocation   :       9875.02 KBytes
  max/ min on nodes  :       1372.88        915.95

 Maximum index for augmentation-charges in exchange          176
  SETUP_FOCK is finished

 total amount of memory used by VASP MPI-rank0    71478. kBytes
=======================================================================

   base      :      30000. kBytes
   nonl-proj :      14621. kBytes
   fftplans  :       8012. kBytes
   grid      :       8190. kBytes
   one-center:         73. kBytes
   HF        :        101. kBytes
   nonlr-proj:       3041. kBytes
   wavefun   :       7440. kBytes

     INWAV:  cpu time      0.0000: real time      0.0000
 Broyden mixing: mesh for mixing (old mesh)
   NGX = 33   NGY = 33   NGZ = 85
  (NGX  =140   NGY  =140   NGZ  =360)
  gives a total of  92565 points

 initial charge density was supplied:
 charge density of overlapping atoms calculated
 number of electron     458.0000000 magnetization
 keeping initial charge density in first step


--------------------------------------------------------------------------------------------------------


 Maximum index for augmentation-charges          606 (set IRDMAX)


--------------------------------------------------------------------------------------------------------


    FEWALD:  cpu time      0.0006: real time      0.0006


--------------------------------------- Iteration      1(   1)  ---------------------------------------


    POTLOK:  cpu time      0.0325: real time      0.0326
    SETDIJ:  cpu time      0.1040: real time      0.1042
    TRIAL :  cpu time      1.0311: real time      1.0354
    CORREC:  cpu time      0.0003: real time      0.0003
    --------------------------------------------
      LOOP:  cpu time      1.1714: real time      1.1781

 eigenvalue-minimisations  :  2204
 total energy-change (2. order) : 0.1703858E+04  (-0.3089920E+05)
 number of electron     458.0000000 magnetization
 augmentation part      458.0000000 magnetization

 DIPCOR: dipole corrections for dipol
 direction  3 min pos     1,
 dipolmoment           0.000000      0.000000     -0.000281 electrons x Angstroem
 Tr[quadrupol]     -6264.557795

 energy correction for charged system         0.000000 eV
 dipol+quadrupol energy correction           -0.000000 eV
 added-field ion interaction          0.002255 eV  (added to PSCEN)


 Free energy of the ion-electron system (eV)
  ---------------------------------------------------
  alpha Z        PSCENC =       916.95228964
  Ewald energy   TEWEN  =    139150.57650482
  -Hartree energ DENC   =   -175247.56475184
  -exchange      EXHF   =         0.00000000
  -V(xc)+E(xc)   XCENC  =      1791.02613607
  PAW double counting   =     32310.01086261   -38519.19434489
  entropy T*S    EENTRO =        -0.02781378
  eigenvalues    EBANDS =     -6893.61488227
  atomic energy  EATOM  =     48195.69443388
  ---------------------------------------------------
  free energy    TOTEN  =      1703.85843424 eV

  energy without entropy =     1703.88624802  energy(sigma->0) =     1703.87234113
  exchange ACFDT corr.  =         0.00000000  see jH, gK, PRB 81, 115126


--------------------------------------------------------------------------------------------------------




--------------------------------------- Iteration      1(   2)  ---------------------------------------


    TRIAL :  cpu time      1.0212: real time      1.0255
    CORREC:  cpu time      0.0001: real time      0.0001
    --------------------------------------------
      LOOP:  cpu time      1.0234: real time      1.0300

 eigenvalue-minimisations  :  2204
 total energy-change (2. order) :-0.4611390E+04  (-0.4491084E+04)
 number of electron     458.0000000 magnetization
 augmentation part      458.0000000 magnetization

 DIPCOR: dipole corrections for dipol
 direction  3 min pos     1,
 dipolmoment           0.000000      0.000000     -0.000281 electrons x Angstroem
 Tr[quadrupol]     -6264.557795

 energy correction for charged system         0.000000 eV
 dipol+quadrupol energy correction           -0.000000 eV
 added-field ion interaction          0.002255 eV  (added to PSCEN)


 Free energy of the ion-electron system (eV)
  ---------------------------------------------------
  alpha Z        PSCENC =       916.95228964
  Ewald energy   TEWEN  =    139150.57650482
  -Hartree energ DENC   =   -175247.56475184
  -exchange      EXHF   =         0.00000000
  -V(xc)+E(xc)   XCENC  =      1791.02613607
  PAW double counting   =     32310.01086261   -38519.19434489
  entropy T*S    EENTRO =        -0.00000000
  eigenvalues    EBANDS =    -11505.03311711
  atomic energy  EATOM  =     48195.69443388
  ---------------------------------------------------
  free energy    TOTEN  =     -2907.53198681 eV

  energy without entropy =    -2907.53198681  energy(sigma->0) =    -2907.53198681
  exchange ACFDT corr.  =         0.00000000  see jH, gK, PRB 81, 115126


--------------------------------------------------------------------------------------------------------




--------------------------------------- Iteration      1(   3)  ---------------------------------------


    TRIAL :  cpu time      0.9608: real time      0.9646
    CORREC:  cpu time      0.0001: real time      0.0001
    --------------------------------------------
      LOOP:  cpu time      0.9626: real time      0.9687

 eigenvalue-minimisations  :  2052
 total energy-change (2. order) :-0.3681771E+03  (-0.3653345E+03)
 number of electron     458.0000000 magnetization
 augmentation part      458.0000000 magnetization

 DIPCOR: dipole corrections for dipol
 direction  3 min pos     1,
 dipolmoment           0.000000      0.000000     -0.000281 electrons x Angstroem
 Tr[quadrupol]     -6264.557795

 energy correction for charged system         0.000000 eV
 dipol+quadrupol energy correction           -0.000000 eV
 added-field ion interaction          0.002255 eV  (added to PSCEN)


 Free energy of the ion-electron system (eV)
  ---------------------------------------------------
  alpha Z        PSCENC =       916.95228964
  Ewald energy   TEWEN  =    139150.57650482
  -Hartree energ DENC   =   -175247.56475184
  -exchange      EXHF   =         0.00000000
  -V(xc)+E(xc)   XCENC  =      1791.02613607
  PAW double counting   =     32310.01086261   -38519.19434489
  entropy T*S    EENTRO =        -0.00000000
  eigenvalues    EBANDS =    -11873.21024022
  atomic energy  EATOM  =     48195.69443388
  ---------------------------------------------------
  free energy    TOTEN  =     -3275.70910992 eV

  energy without entropy =    -3275.70910992  energy(sigma->0) =    -3275.70910992
  exchange ACFDT corr.  =         0.00000000  see jH, gK, PRB 81, 115126


--------------------------------------------------------------------------------------------------------




--------------------------------------- Iteration      1(   4)  ---------------------------------------


    TRIAL :  cpu time      1.0243: real time      1.0284
    CORREC:  cpu time      0.0001: real time      0.0001
    --------------------------------------------
      LOOP:  cpu time      1.0253: real time      1.0330

 eigenvalue-minimisations  :  2204
 total energy-change (2. order) :-0.9117531E+01  (-0.9073427E+01)
 number of electron     458.0000000 magnetization
 augmentation part      458.0000000 magnetization

 DIPCOR: dipole corrections for dipol
 direction  3 min pos     1,
 dipolmoment           0.000000      0.000000     -0.000281 electrons x Angstroem
 Tr[quadrupol]     -6264.557795

 energy correction for charged system         0.000000 eV
 dipol+quadrupol energy correction           -0.000000 eV
 added-field ion interaction          0.002255 eV  (added to PSCEN)


 Free energy of the ion-electron system (eV)
  ---------------------------------------------------
  alpha Z        PSCENC =       916.95228964
  Ewald energy   TEWEN  =    139150.57650482
  -Hartree energ DENC   =   -175247.56475184
  -exchange      EXHF   =         0.00000000
  -V(xc)+E(xc)   XCENC  =      1791.02613607
  PAW double counting   =     32310.01086261   -38519.19434489
  entropy T*S    EENTRO =        -0.00000000
  eigenvalues    EBANDS =    -11882.32777145
  atomic energy  EATOM  =     48195.69443388
  ---------------------------------------------------
  free energy    TOTEN  =     -3284.82664116 eV

  energy without entropy =    -3284.82664116  energy(sigma->0) =    -3284.82664116
  exchange ACFDT corr.  =         0.00000000  see jH, gK, PRB 81, 115126


--------------------------------------------------------------------------------------------------------




--------------------------------------- Iteration      1(   5)  ---------------------------------------


    POTLOK:  cpu time      0.0806: real time      0.0808
    SETDIJ:  cpu time      0.2575: real time      0.2580
    TRIAL :  cpu time     71.1681: real time     71.4642
    CORREC:  cpu time      0.0001: real time      0.0001
    CHARGE:  cpu time      0.0995: real time      0.0999
    --------------------------------------------
      LOOP:  cpu time     71.6074: real time     71.9069

 eigenvalue-minimisations  :  2128
 total energy-change (2. order) : 0.2747852E+04  (-0.1566611E+01)
 number of electron     457.9999584 magnetization
 augmentation part      160.7774800 magnetization

 DIPCOR: dipole corrections for dipol
 direction  3 min pos     1,
 dipolmoment           0.000000      0.000000     -0.000281 electrons x Angstroem
 Tr[quadrupol]     -6264.557795

 energy correction for charged system         0.000000 eV
 dipol+quadrupol energy correction           -0.000000 eV
 added-field ion interaction          0.002255 eV  (added to PSCEN)


 Free energy of the ion-electron system (eV)
  ---------------------------------------------------
  alpha Z        PSCENC =       916.95228964
  Ewald energy   TEWEN  =    139150.57650482
  -Hartree energ DENC   =   -175247.56475184
  -exchange      EXHF   =      1362.19351813
  -V(xc)+E(xc)   XCENC  =      1424.46328505
  PAW double counting   =     32649.43877705   -36331.98630696
  entropy T*S    EENTRO =        -0.00000000
  eigenvalues    EBANDS =    -12656.74259221
  atomic energy  EATOM  =     48195.69443388
  ---------------------------------------------------
  free energy    TOTEN  =      -536.97484243 eV

  energy without entropy =     -536.97484243  energy(sigma->0) =     -536.97484243
  exchange ACFDT corr.  =        -0.00000000  see jH, gK, PRB 81, 115126


--------------------------------------------------------------------------------------------------------




--------------------------------------- Iteration      1(   6)  ---------------------------------------


    POTLOK:  cpu time      0.0755: real time      0.0757
    SETDIJ:  cpu time      0.2517: real time      0.2521
    TRIAL :  cpu time     70.5449: real time     70.8462
    CORREC:  cpu time     70.3967: real time     70.6899
    CHARGE:  cpu time      0.0759: real time      0.0762
    --------------------------------------------
      LOOP:  cpu time    141.3474: real time    141.9448

 eigenvalue-minimisations  :     0
 total energy-change (2. order) : 0.2275269E+03  (-0.1215491E+03)
 number of electron     457.9999572 magnetization
 augmentation part      157.1651908 magnetization

 DIPCOR: dipole corrections for dipol
 direction  3 min pos     1,
 dipolmoment           0.000000      0.000000      0.203928 electrons x Angstroem
 Tr[quadrupol]     -6292.536415

 energy correction for charged system         0.000000 eV
 dipol+quadrupol energy correction           -0.002500 eV
 added-field ion interaction         -1.635292 eV  (added to PSCEN)


 Free energy of the ion-electron system (eV)
  ---------------------------------------------------
  alpha Z        PSCENC =       912.69145326
  Ewald energy   TEWEN  =    139150.57650482
  -Hartree energ DENC   =   -179374.05503177
  -exchange      EXHF   =      1369.84289655
  -V(xc)+E(xc)   XCENC  =      1541.53438431
  PAW double counting   =     37874.89309751   -41520.44045708
  entropy T*S    EENTRO =        -0.00000000
  eigenvalues    EBANDS =     -8460.18523836
  atomic energy  EATOM  =     48195.69443388
  ---------------------------------------------------
  free energy    TOTEN  =      -309.44795688 eV

  energy without entropy =     -309.44795688  energy(sigma->0) =     -309.44795688
  exchange ACFDT corr.  =         0.00000000  see jH, gK, PRB 81, 115126


--------------------------------------------------------------------------------------------------------




--------------------------------------- Iteration      1(   7)  ---------------------------------------


    POTLOK:  cpu time      0.0817: real time      0.0819
    SETDIJ:  cpu time      0.2552: real time      0.2559
    TRIAL :  cpu time     70.3588: real time     70.6563
    CORREC:  cpu time     70.4206: real time     70.7145
    CHARGE:  cpu time      0.0752: real time      0.0755
    --------------------------------------------
      LOOP:  cpu time    141.1940: real time    141.7889

 eigenvalue-minimisations  :     0
 total energy-change (2. order) :-0.1226431E+03  (-0.9049839E+01)
 number of electron     457.9999574 magnetization
 augmentation part      155.4020819 magnetization

 DIPCOR: dipole corrections for dipol
 direction  3 min pos     1,
 dipolmoment           0.000000      0.000000      0.208239 electrons x Angstroem
 Tr[quadrupol]     -6305.265807

 energy correction for charged system         0.000000 eV
 dipol+quadrupol energy correction           -0.002607 eV
 added-field ion interaction         -1.669859 eV  (added to PSCEN)


 Free energy of the ion-electron system (eV)
  ---------------------------------------------------
  alpha Z        PSCENC =       914.77062905
  Ewald energy   TEWEN  =    139150.57650482
  -Hartree energ DENC   =   -177231.09265213
  -exchange      EXHF   =      1315.49615869
  -V(xc)+E(xc)   XCENC  =      1475.99261497
  PAW double counting   =     36547.85014552   -40250.42697735
  entropy T*S    EENTRO =        -0.00000000
  eigenvalues    EBANDS =    -10550.95186496
  atomic energy  EATOM  =     48195.69443388
  ---------------------------------------------------
  free energy    TOTEN  =      -432.09100752 eV

  energy without entropy =     -432.09100752  energy(sigma->0) =     -432.09100752
  exchange ACFDT corr.  =         0.00000000  see jH, gK, PRB 81, 115126


--------------------------------------------------------------------------------------------------------




--------------------------------------- Iteration      1(   8)  ---------------------------------------


    POTLOK:  cpu time      0.0776: real time      0.0778
    SETDIJ:  cpu time      0.2597: real time      0.2602
    TRIAL :  cpu time     70.5242: real time     70.8221
    CORREC:  cpu time     70.3522: real time     70.6449
    CHARGE:  cpu time      0.0753: real time      0.0756
    --------------------------------------------
      LOOP:  cpu time    141.2914: real time    141.8854

 eigenvalue-minimisations  :     0
 total energy-change (2. order) :-0.9095425E+01  (-0.5588975E+01)
 number of electron     457.9999570 magnetization
 augmentation part      155.4873142 magnetization

 DIPCOR: dipole corrections for dipol
 direction  3 min pos     1,
 dipolmoment           0.000000      0.000000      0.130420 electrons x Angstroem
 Tr[quadrupol]     -6306.702701

 energy correction for charged system         0.000000 eV
 dipol+quadrupol energy correction           -0.001023 eV
 added-field ion interaction         -1.045834 eV  (added to PSCEN)


 Free energy of the ion-electron system (eV)
  ---------------------------------------------------
  alpha Z        PSCENC =       915.47282884
  Ewald energy   TEWEN  =    139150.57650482
  -Hartree energ DENC   =   -177283.36328483
  -exchange      EXHF   =      1309.93020709
  -V(xc)+E(xc)   XCENC  =      1468.08352074
  PAW double counting   =     36518.72468984   -40162.67039612
  entropy T*S    EENTRO =        -0.00000000
  eigenvalues    EBANDS =    -10553.63493681
  atomic energy  EATOM  =     48195.69443388
  ---------------------------------------------------
  free energy    TOTEN  =      -441.18643254 eV

  energy without entropy =     -441.18643254  energy(sigma->0) =     -441.18643254
  exchange ACFDT corr.  =        -0.00000000  see jH, gK, PRB 81, 115126


--------------------------------------------------------------------------------------------------------




--------------------------------------- Iteration      1(   9)  ---------------------------------------


    POTLOK:  cpu time      0.0789: real time      0.0791
    SETDIJ:  cpu time      0.2592: real time      0.2597
    TRIAL :  cpu time     70.4837: real time     70.7805
    CORREC:  cpu time     70.5278: real time     70.8211
    CHARGE:  cpu time      0.0749: real time      0.0751
    --------------------------------------------
      LOOP:  cpu time    141.4266: real time    142.0203

 eigenvalue-minimisations  :     0
 total energy-change (2. order) :-0.5512229E+01  (-0.3112491E+01)
 number of electron     457.9999570 magnetization
 augmentation part      155.4516768 magnetization

 DIPCOR: dipole corrections for dipol
 direction  3 min pos     1,
 dipolmoment           0.000000      0.000000      0.083726 electrons x Angstroem
 Tr[quadrupol]     -6301.534036

 energy correction for charged system         0.000000 eV
 dipol+quadrupol energy correction           -0.000421 eV
 added-field ion interaction         -0.671395 eV  (added to PSCEN)


 Free energy of the ion-electron system (eV)
  ---------------------------------------------------
  alpha Z        PSCENC =       916.15485511
  Ewald energy   TEWEN  =    139150.57650482
  -Hartree energ DENC   =   -177229.45419526
  -exchange      EXHF   =      1307.92929999
  -V(xc)+E(xc)   XCENC  =      1466.72330214
  PAW double counting   =     36460.93875775   -40137.52571405
  entropy T*S    EENTRO =        -0.00000000
  eigenvalues    EBANDS =    -10577.73590604
  atomic energy  EATOM  =     48195.69443388
  ---------------------------------------------------
  free energy    TOTEN  =      -446.69866164 eV

  energy without entropy =     -446.69866164  energy(sigma->0) =     -446.69866164
  exchange ACFDT corr.  =        -0.00000000  see jH, gK, PRB 81, 115126


--------------------------------------------------------------------------------------------------------




--------------------------------------- Iteration      1(  10)  ---------------------------------------


    POTLOK:  cpu time      0.0795: real time      0.0797
    SETDIJ:  cpu time      0.2557: real time      0.2562
    TRIAL :  cpu time     70.3677: real time     70.6645
    CORREC:  cpu time     70.3592: real time     70.6493
    CHARGE:  cpu time      0.0757: real time      0.0759
    --------------------------------------------
      LOOP:  cpu time    141.1398: real time    141.7302

 eigenvalue-minimisations  :     0
 total energy-change (2. order) :-0.3121617E+01  (-0.1085914E+01)
 number of electron     457.9999571 magnetization
 augmentation part      155.3075329 magnetization

 DIPCOR: dipole corrections for dipol
 direction  3 min pos     1,
 dipolmoment           0.000000      0.000000      0.095742 electrons x Angstroem
 Tr[quadrupol]     -6298.079294

 energy correction for charged system         0.000000 eV
 dipol+quadrupol energy correction           -0.000551 eV
 added-field ion interaction         -0.767752 eV  (added to PSCEN)


 Free energy of the ion-electron system (eV)
  ---------------------------------------------------
  alpha Z        PSCENC =       916.26950543
  Ewald energy   TEWEN  =    139150.57650482
  -Hartree energ DENC   =   -177042.89972729
  -exchange      EXHF   =      1305.08745123
  -V(xc)+E(xc)   XCENC  =      1464.57274654
  PAW double counting   =     36311.62074026   -39998.13446565
  entropy T*S    EENTRO =        -0.00000000
  eigenvalues    EBANDS =    -10752.60746808
  atomic energy  EATOM  =     48195.69443388
  ---------------------------------------------------
  free energy    TOTEN  =      -449.82027886 eV

  energy without entropy =     -449.82027886  energy(sigma->0) =     -449.82027886
  exchange ACFDT corr.  =         0.00000000  see jH, gK, PRB 81, 115126


--------------------------------------------------------------------------------------------------------




--------------------------------------- Iteration      1(  11)  ---------------------------------------


    POTLOK:  cpu time      0.0802: real time      0.0804
    SETDIJ:  cpu time      0.2621: real time      0.2625
    TRIAL :  cpu time     70.4576: real time     70.7555
    CORREC:  cpu time     70.4594: real time     70.7536
    CHARGE:  cpu time      0.0752: real time      0.0755
    --------------------------------------------
      LOOP:  cpu time    141.3364: real time    141.9322

 eigenvalue-minimisations  :     0
 total energy-change (2. order) :-0.1092443E+01  (-0.4160317E+00)
 number of electron     457.9999572 magnetization
 augmentation part      155.3800273 magnetization

 DIPCOR: dipole corrections for dipol
 direction  3 min pos     1,
 dipolmoment           0.000000      0.000000      0.112389 electrons x Angstroem
 Tr[quadrupol]     -6298.449867

 energy correction for charged system         0.000000 eV
 dipol+quadrupol energy correction           -0.000759 eV
 added-field ion interaction         -0.901246 eV  (added to PSCEN)


 Free energy of the ion-electron system (eV)
  ---------------------------------------------------
  alpha Z        PSCENC =       916.19271010
  Ewald energy   TEWEN  =    139150.57650482
  -Hartree energ DENC   =   -176925.41225233
  -exchange      EXHF   =      1303.48840952
  -V(xc)+E(xc)   XCENC  =      1463.23681711
  PAW double counting   =     36215.70472698   -39891.73286240
  entropy T*S    EENTRO =        -0.00000000
  eigenvalues    EBANDS =    -10878.66120925
  atomic energy  EATOM  =     48195.69443388
  ---------------------------------------------------
  free energy    TOTEN  =      -450.91272156 eV

  energy without entropy =     -450.91272156  energy(sigma->0) =     -450.91272156
  exchange ACFDT corr.  =         0.00000000  see jH, gK, PRB 81, 115126


--------------------------------------------------------------------------------------------------------




--------------------------------------- Iteration      1(  12)  ---------------------------------------


    POTLOK:  cpu time      0.0810: real time      0.0812
    SETDIJ:  cpu time      0.2617: real time      0.2622
    TRIAL :  cpu time     70.2309: real time     70.5265
    CORREC:  cpu time     70.4270: real time     70.7195
    CHARGE:  cpu time      0.0752: real time      0.0755
    --------------------------------------------
      LOOP:  cpu time    141.0775: real time    141.6692

 eigenvalue-minimisations  :     0
 total energy-change (2. order) :-0.4159719E+00  (-0.1742812E+00)
 number of electron     457.9999572 magnetization
 augmentation part      155.5621084 magnetization

 DIPCOR: dipole corrections for dipol
 direction  3 min pos     1,
 dipolmoment           0.000000      0.000000      0.124116 electrons x Angstroem
 Tr[quadrupol]     -6299.002260

 energy correction for charged system         0.000000 eV
 dipol+quadrupol energy correction           -0.000926 eV
 added-field ion interaction         -0.995277 eV  (added to PSCEN)


 Free energy of the ion-electron system (eV)
  ---------------------------------------------------
  alpha Z        PSCENC =       916.05237933
  Ewald energy   TEWEN  =    139150.57650482
  -Hartree energ DENC   =   -176913.42468278
  -exchange      EXHF   =      1303.24777808
  -V(xc)+E(xc)   XCENC  =      1463.31198133
  PAW double counting   =     36182.29667952   -39855.03026905
  entropy T*S    EENTRO =        -0.00000000
  eigenvalues    EBANDS =    -10894.05349854
  atomic energy  EATOM  =     48195.69443388
  ---------------------------------------------------
  free energy    TOTEN  =      -451.32869341 eV

  energy without entropy =     -451.32869341  energy(sigma->0) =     -451.32869341
  exchange ACFDT corr.  =        -0.00000000  see jH, gK, PRB 81, 115126


--------------------------------------------------------------------------------------------------------




--------------------------------------- Iteration      1(  13)  ---------------------------------------


    POTLOK:  cpu time      0.0805: real time      0.0807
    SETDIJ:  cpu time      0.2601: real time      0.2606
    TRIAL :  cpu time     70.4682: real time     70.7637
    CORREC:  cpu time     70.3225: real time     70.6145
    CHARGE:  cpu time      0.0769: real time      0.0773
    --------------------------------------------
      LOOP:  cpu time    141.2101: real time    141.8012

 eigenvalue-minimisations  :     0
 total energy-change (2. order) :-0.1742988E+00  (-0.8323742E-01)
 number of electron     457.9999572 magnetization
 augmentation part      155.6772346 magnetization

 DIPCOR: dipole corrections for dipol
 direction  3 min pos     1,
 dipolmoment           0.000000      0.000000      0.129150 electrons x Angstroem
 Tr[quadrupol]     -6299.479566

 energy correction for charged system         0.000000 eV
 dipol+quadrupol energy correction           -0.001003 eV
 added-field ion interaction         -1.035647 eV  (added to PSCEN)


 Free energy of the ion-electron system (eV)
  ---------------------------------------------------
  alpha Z        PSCENC =       915.95190487
  Ewald energy   TEWEN  =    139150.57650482
  -Hartree energ DENC   =   -176946.46258691
  -exchange      EXHF   =      1303.59924595
  -V(xc)+E(xc)   XCENC  =      1463.96352561
  PAW double counting   =     36184.92759258   -39861.48655014
  entropy T*S    EENTRO =        -0.00000000
  eigenvalues    EBANDS =    -10858.26706284
  atomic energy  EATOM  =     48195.69443388
  ---------------------------------------------------
  free energy    TOTEN  =      -451.50299218 eV

  energy without entropy =     -451.50299218  energy(sigma->0) =     -451.50299218
  exchange ACFDT corr.  =        -0.00000000  see jH, gK, PRB 81, 115126


--------------------------------------------------------------------------------------------------------




--------------------------------------- Iteration      1(  14)  ---------------------------------------


    POTLOK:  cpu time      0.0800: real time      0.0802
    SETDIJ:  cpu time      0.2608: real time      0.2612
    TRIAL :  cpu time     70.3187: real time     70.6130
    CORREC:  cpu time     70.4024: real time     70.6943
    CHARGE:  cpu time      0.0757: real time      0.0760
    --------------------------------------------
      LOOP:  cpu time    141.1390: real time    141.7291

 eigenvalue-minimisations  :     0
 total energy-change (2. order) :-0.8328486E-01  (-0.4468431E-01)
 number of electron     457.9999572 magnetization
 augmentation part      155.6803453 magnetization

 DIPCOR: dipole corrections for dipol
 direction  3 min pos     1,
 dipolmoment           0.000000      0.000000      0.132081 electrons x Angstroem
 Tr[quadrupol]     -6299.801764

 energy correction for charged system         0.000000 eV
 dipol+quadrupol energy correction           -0.001049 eV
 added-field ion interaction         -1.059153 eV  (added to PSCEN)


 Free energy of the ion-electron system (eV)
  ---------------------------------------------------
  alpha Z        PSCENC =       915.90689866
  Ewald energy   TEWEN  =    139150.57650482
  -Hartree energ DENC   =   -176973.86130201
  -exchange      EXHF   =      1303.94885430
  -V(xc)+E(xc)   XCENC  =      1464.45200231
  PAW double counting   =     36198.68499774   -39878.11207480
  entropy T*S    EENTRO =        -0.00000000
  eigenvalues    EBANDS =    -10828.87659193
  atomic energy  EATOM  =     48195.69443388
  ---------------------------------------------------
  free energy    TOTEN  =      -451.58627704 eV

  energy without entropy =     -451.58627704  energy(sigma->0) =     -451.58627704
  exchange ACFDT corr.  =         0.00000000  see jH, gK, PRB 81, 115126


--------------------------------------------------------------------------------------------------------




--------------------------------------- Iteration      1(  15)  ---------------------------------------


    POTLOK:  cpu time      0.0805: real time      0.0807
    SETDIJ:  cpu time      0.2548: real time      0.2553
    TRIAL :  cpu time     70.2714: real time     70.5658
    CORREC:  cpu time     70.4625: real time     70.7526
    CHARGE:  cpu time      0.0754: real time      0.0757
    --------------------------------------------
      LOOP:  cpu time    141.1478: real time    141.7346

 eigenvalue-minimisations  :     0
 total energy-change (2. order) :-0.4468009E-01  (-0.2297252E-01)
 number of electron     457.9999572 magnetization
 augmentation part      155.6428627 magnetization

 DIPCOR: dipole corrections for dipol
 direction  3 min pos     1,
 dipolmoment           0.000000      0.000000      0.133070 electrons x Angstroem
 Tr[quadrupol]     -6299.993961

 energy correction for charged system         0.000000 eV
 dipol+quadrupol energy correction           -0.001065 eV
 added-field ion interaction         -1.067085 eV  (added to PSCEN)


 Free energy of the ion-electron system (eV)
  ---------------------------------------------------
  alpha Z        PSCENC =       915.88715252
  Ewald energy   TEWEN  =    139150.57650482
  -Hartree energ DENC   =   -176983.42745852
  -exchange      EXHF   =      1304.05365489
  -V(xc)+E(xc)   XCENC  =      1464.52561902
  PAW double counting   =     36207.67363632   -39886.69184612
  entropy T*S    EENTRO =        -0.00000000
  eigenvalues    EBANDS =    -10819.92265395
  atomic energy  EATOM  =     48195.69443388
  ---------------------------------------------------
  free energy    TOTEN  =      -451.63095713 eV

  energy without entropy =     -451.63095713  energy(sigma->0) =     -451.63095713
  exchange ACFDT corr.  =         0.00000000  see jH, gK, PRB 81, 115126


--------------------------------------------------------------------------------------------------------




--------------------------------------- Iteration      1(  16)  ---------------------------------------


    POTLOK:  cpu time      0.0804: real time      0.0807
    SETDIJ:  cpu time      0.2564: real time      0.2570
    TRIAL :  cpu time     70.3677: real time     70.6653
    CORREC:  cpu time     70.4087: real time     70.7059
    CHARGE:  cpu time      0.0755: real time      0.0758
    --------------------------------------------
      LOOP:  cpu time    141.1918: real time    141.7892

 eigenvalue-minimisations  :     0
 total energy-change (2. order) :-0.2297531E-01  (-0.1158156E-01)
 number of electron     457.9999572 magnetization
 augmentation part      155.6249700 magnetization

 DIPCOR: dipole corrections for dipol
 direction  3 min pos     1,
 dipolmoment           0.000000      0.000000      0.132745 electrons x Angstroem
 Tr[quadrupol]     -6300.152530

 energy correction for charged system         0.000000 eV
 dipol+quadrupol energy correction           -0.001059 eV
 added-field ion interaction         -1.064477 eV  (added to PSCEN)


 Free energy of the ion-electron system (eV)
  ---------------------------------------------------
  alpha Z        PSCENC =       915.88136758
  Ewald energy   TEWEN  =    139150.57650482
  -Hartree energ DENC   =   -176986.46046826
  -exchange      EXHF   =      1304.06318427
  -V(xc)+E(xc)   XCENC  =      1464.44551599
  PAW double counting   =     36211.27692625   -39889.08613270
  entropy T*S    EENTRO =        -0.00000000
  eigenvalues    EBANDS =    -10818.04526428
  atomic energy  EATOM  =     48195.69443388
  ---------------------------------------------------
  free energy    TOTEN  =      -451.65393244 eV

  energy without entropy =     -451.65393244  energy(sigma->0) =     -451.65393244
[...]
    279       9.0560      0.00000
    280       9.3790      0.00000
    281       9.4226      0.00000
    282       9.4488      0.00000
    283       9.4536      0.00000
    284       9.4627      0.00000
    285       9.4644      0.00000
    286       9.4846      0.00000
    287       9.4887      0.00000
    288       9.5212      0.00000
    289       9.5567      0.00000
    290       9.6431      0.00000
    291       9.6545      0.00000
    292       9.7063      0.00000
    293       9.8315      0.00000
    294       9.9090      0.00000
    295       9.9732      0.00000
    296      10.0577      0.00000
    297      10.1136      0.00000
    298      10.1385      0.00000
    299      10.2170      0.00000
    300      10.2612      0.00000
    301      10.2809      0.00000
    302      10.2965      0.00000
    303      10.3544      0.00000
    304      10.4104      0.00000


--------------------------------------------------------------------------------------------------------


 soft charge-density along one line, spin component           1
         0         1         2         3         4         5         6         7         8         9
 total charge-density along one line

 pseudopotential strength for first ion, spin component:           1
  9.985  13.275  -0.000   0.019  -0.000   0.000  -0.063   0.000
 13.275  17.646  -0.000   0.025  -0.000   0.000  -0.083   0.000
 -0.000  -0.000  -4.314  -0.000   0.000   8.471   0.000  -0.000
  0.019   0.025  -0.000  -4.274  -0.000   0.000   8.366   0.000
 -0.000  -0.000   0.000  -0.000  -4.314  -0.000   0.000   8.471
  0.000   0.000   8.471   0.000  -0.000 -18.761  -0.000   0.000
 -0.063  -0.083   0.000   8.366   0.000  -0.000 -18.497  -0.000
  0.000   0.000  -0.000   0.000   8.471   0.000  -0.000 -18.761
 total augmentation occupancy for first ion, spin component:           1
  7.246  -3.313  -0.000   2.196   0.000  -0.000   0.394   0.000
 -3.313   1.933  -0.000  -1.663   0.000   0.000  -0.235   0.000
 -0.000  -0.000   0.828   0.000   0.000   0.062  -0.000   0.000
  2.196  -1.663   0.000   2.295   0.000   0.000   0.212   0.000
  0.000   0.000   0.000   0.000   0.828   0.000   0.000   0.062
 -0.000   0.000   0.062   0.000   0.000   0.005   0.000   0.000
  0.394  -0.235  -0.000   0.212   0.000   0.000   0.029   0.000
  0.000   0.000   0.000   0.000   0.062   0.000   0.000   0.005


------------------------ aborting loop because EDIFF is reached ----------------------------------------


    FORLOC:  cpu time      0.0031: real time      0.0031
    FORHF :  cpu time     76.4911: real time     76.7638
    FORNL :  cpu time      0.2587: real time      0.2594
    STRESS:  cpu time      0.5839: real time      0.5859
    FORCOR:  cpu time      0.0793: real time      0.0795
    OFIELD:  cpu time      0.0001: real time      0.0001

  DFT-D2 method for vdW energy calculation
  -------------------------------------------------------------------

  Parameters of vdW forcefield:
         C6(Jnm^6/mol)     R0(A)
   -----------------------------
   C        1.750          1.452
   O        0.700          1.342
   Mg       0.630          1.243
   O        0.700          1.342

  vdW correction parametrized for the method           

  IVDW =   1
  VDW_RADIUS =    50.000 A
  VDW_S6 =     1.050
  VDW_SR =     1.000
  VDW_D =    20.000
  LVDW_EWALD = F

  Number of pair interactions contributing to vdW energy:  776614
  Edisp (eV):   -5.27028
    FORVDW:  cpu time      0.0388: real time      0.0436

  FORCE on cell =-STRESS in cart. coord.  units (eV):
  Direction    XX          YY          ZZ          XY          YZ          ZX
  --------------------------------------------------------------------------------------
  Alpha Z   916.95003   916.95003   916.95003
  Ewald  159730.93811159730.93811************    -0.00000    -0.00000     0.00000
  Hartree170179.48190170179.48190************    -0.00000    -0.00000    -0.00000
  E(xc)   -2038.11089 -2038.11089 -2040.12521    -0.00000    -0.00000     0.00000
  Local  ************************339583.20286    -0.00000     0.00000    -0.00000
  n-local -1184.47029 -1184.89421 -1216.41604     0.00000     0.00000     0.00000
  augment   902.87658   902.87658   892.03527    -0.00000     0.00000     0.00000
  Kinetic  7532.30330  7534.07715  7552.78482     0.00002    -0.00000    -0.00001
  Fock    -2009.07513 -2009.17966 -2008.43862    -0.00000     0.00000     0.00000
  vdW        -7.67555    -7.67555    -6.34539     0.00000    -0.00000    -0.00000
  -------------------------------------------------------------------------------------
  Total     -30.51418   -30.51418    -2.53764     0.00000    -0.00000     0.00000
  in kB     -32.48607   -32.48607    -2.70163     0.00000    -0.00000     0.00000
  external pressure =      -22.56 kB  Pullay stress =        0.00 kB


 VOLUME and BASIS-vectors are now :
 -----------------------------------------------------------------------------
  energy-cutoff  :      600.00
  volume of cell :     1504.93
      direct lattice vectors                 reciprocal lattice vectors
     8.404861995  0.000000000  0.000000000     0.118978753  0.000000000  0.000000000
     0.000000000  8.404861995  0.000000000     0.000000000  0.118978753  0.000000000
     0.000000000  0.000000000 21.303646496     0.000000000  0.000000000  0.046940321

  length of vectors
     8.404861995  8.404861995 21.303646496     0.118978753  0.118978753  0.046940321


 FORCES acting on ions:
    Electron-Ion                     Ewald-Force                    Non-Local-Force
 -----------------------------------------------------------------------------------------------
   0.975E-13 0.243E-12 -.827E+03   -.891E-14 -.450E-15 0.799E+03   0.108E-22 -.392E-22 0.268E+02
   0.453E-12 0.812E-12 -.145E+04   0.540E-14 -.851E-15 0.151E+04   0.458E-23 -.340E-23 -.560E+02
   0.787E-01 -.111E-11 0.210E+04   -.762E-01 -.279E-13 -.209E+04   -.158E-02 -.949E-22 -.641E+01
   0.642E-12 0.754E-01 0.210E+04   0.170E-13 -.711E-01 -.209E+04   -.568E-23 -.291E-02 -.642E+01
   0.230E+00 0.230E+00 0.723E+03   -.208E+00 -.208E+00 -.724E+03   -.134E-01 -.134E-01 0.419E+00
   0.591E-12 0.233E-12 0.723E+03   0.615E-13 -.425E-13 -.723E+03   0.140E-22 0.208E-22 0.366E+00
   0.253E+01 -.551E-12 -.648E+03   -.251E+01 0.904E-14 0.648E+03   -.260E-01 0.992E-23 -.157E+00
   0.601E-12 0.366E+01 -.644E+03   -.180E-12 -.353E+01 0.644E+03   0.333E-23 -.126E+00 -.290E+00
   0.170E+02 0.170E+02 -.201E+04   -.171E+02 -.171E+02 0.200E+04   0.923E-01 0.923E-01 0.556E+01
   0.695E-12 0.273E-11 -.201E+04   -.125E-12 -.247E-13 0.201E+04   0.145E-24 0.196E-22 0.548E+01
   0.754E-01 -.636E-12 0.210E+04   -.711E-01 -.973E-13 -.209E+04   -.291E-02 0.269E-22 -.642E+01
   0.655E-12 -.754E-01 0.210E+04   0.191E-13 0.711E-01 -.209E+04   -.311E-22 0.291E-02 -.642E+01
   0.230E+00 -.230E+00 0.723E+03   -.208E+00 0.208E+00 -.724E+03   -.134E-01 0.134E-01 0.419E+00
   0.645E-12 0.487E-12 0.723E+03   -.145E-11 -.157E-11 -.723E+03   -.522E-24 0.715E-24 0.499E+00
   0.366E+01 0.173E-12 -.644E+03   -.353E+01 0.155E-10 0.644E+03   -.126E+00 0.496E-23 -.290E+00
   0.617E-12 -.366E+01 -.644E+03   0.137E-11 0.353E+01 0.644E+03   0.260E-23 0.126E+00 -.290E+00
   0.170E+02 -.170E+02 -.201E+04   -.171E+02 0.171E+02 0.200E+04   0.923E-01 -.923E-01 0.556E+01
   0.694E-12 -.139E-12 -.195E+04   -.120E-10 -.710E-13 0.195E+04   -.488E-23 0.336E-25 0.410E+01
   -.787E-01 -.118E-11 0.210E+04   0.762E-01 -.443E-13 -.209E+04   0.158E-02 -.690E-22 -.641E+01
   -.580E-13 0.787E-01 0.210E+04   0.316E-13 -.762E-01 -.209E+04   -.309E-22 -.158E-02 -.641E+01
   -.230E+00 0.230E+00 0.723E+03   0.208E+00 -.208E+00 -.724E+03   0.134E-01 -.134E-01 0.419E+00
   -.616E-13 -.720E-12 0.722E+03   0.313E-11 -.451E-13 -.723E+03   0.136E-22 0.411E-22 0.396E+00
   -.253E+01 -.565E-12 -.648E+03   0.251E+01 0.282E-15 0.648E+03   0.260E-01 0.926E-23 -.157E+00
   -.556E-13 0.253E+01 -.648E+03   0.628E-13 -.251E+01 0.648E+03   0.790E-23 -.260E-01 -.157E+00
   -.170E+02 0.170E+02 -.201E+04   0.171E+02 -.171E+02 0.200E+04   -.923E-01 0.923E-01 0.556E+01
   -.516E-13 -.203E-12 -.203E+04   -.103E-12 -.586E-13 0.202E+04   0.131E-22 -.758E-24 0.550E+01
   -.754E-01 0.108E-11 0.210E+04   0.711E-01 -.809E-13 -.209E+04   0.291E-02 -.257E-22 -.642E+01
   -.655E-13 -.787E-01 0.210E+04   -.552E-14 0.762E-01 -.209E+04   0.273E-22 0.158E-02 -.641E+01
   -.230E+00 -.230E+00 0.723E+03   0.208E+00 0.208E+00 -.724E+03   0.134E-01 0.134E-01 0.419E+00
   -.658E-13 -.227E-12 0.723E+03   0.146E-11 -.159E-11 -.723E+03   -.962E-24 -.392E-23 0.366E+00
   -.366E+01 0.255E-11 -.644E+03   0.353E+01 0.155E-10 0.644E+03   0.126E+00 0.170E-22 -.290E+00
   -.628E-13 -.253E+01 -.648E+03   0.850E-13 0.251E+01 0.648E+03   -.151E-22 0.260E-01 -.157E+00
   -.170E+02 -.170E+02 -.201E+04   0.171E+02 0.171E+02 0.200E+04   -.923E-01 -.923E-01 0.556E+01
   -.531E-13 0.906E-12 -.201E+04   -.110E-12 -.354E-13 0.201E+04   -.229E-23 0.209E-23 0.548E+01
   0.257E+00 0.469E-12 0.542E+03   -.249E+00 -.838E-14 -.542E+03   -.100E-01 0.389E-23 -.652E-01
   0.272E-12 0.253E+00 0.542E+03   -.112E-12 -.280E+00 -.542E+03   -.165E-22 0.320E-01 -.119E+00
   0.561E-01 0.561E-01 0.158E+04   -.527E-01 -.527E-01 -.158E+04   -.413E-02 -.413E-02 0.312E+01
   0.311E-12 -.162E-12 0.158E+04   0.102E-13 -.219E-13 -.158E+04   0.287E-23 -.126E-22 0.312E+01
   0.692E+01 -.879E-12 -.154E+04   -.685E+01 0.765E-13 0.154E+04   -.641E-01 -.348E-23 -.456E+01
   0.337E-12 0.223E+02 -.151E+04   -.528E-13 -.220E+02 0.152E+04   -.974E-22 -.263E+00 -.454E+01
   0.219E+01 0.219E+01 -.478E+03   -.218E+01 -.218E+01 0.477E+03   -.804E-02 -.804E-02 0.382E+00
   0.284E-12 -.419E-12 -.478E+03   0.866E-11 -.849E-11 0.478E+03   0.132E-23 -.149E-23 0.320E+00
   0.253E+00 0.832E-12 0.542E+03   -.280E+00 -.444E-14 -.542E+03   0.320E-01 0.646E-23 -.119E+00
   0.282E-12 -.253E+00 0.542E+03   -.117E-12 0.280E+00 -.542E+03   0.124E-23 -.320E-01 -.119E+00
   0.561E-01 -.561E-01 0.158E+04   -.527E-01 0.527E-01 -.158E+04   -.413E-02 0.413E-02 0.312E+01
   0.297E-12 0.141E-11 0.158E+04   -.231E-13 0.302E-13 -.158E+04   -.684E-23 0.164E-22 0.311E+01
   0.223E+02 0.893E-12 -.151E+04   -.220E+02 -.270E-14 0.152E+04   -.263E+00 0.200E-22 -.454E+01
   0.352E-12 -.223E+02 -.151E+04   -.515E-14 0.220E+02 0.152E+04   0.558E-22 0.263E+00 -.454E+01
   0.219E+01 -.219E+01 -.478E+03   -.218E+01 0.218E+01 0.477E+03   -.804E-02 0.804E-02 0.382E+00
   0.280E-12 0.122E-12 -.480E+03   -.327E-14 -.497E-13 0.481E+03   0.296E-22 0.494E-22 -.243E+00
   -.257E+00 0.454E-12 0.542E+03   0.249E+00 0.381E-15 -.542E+03   0.100E-01 -.150E-22 -.652E-01
   -.369E-13 0.257E+00 0.542E+03   -.141E-13 -.249E+00 -.542E+03   -.129E-22 -.100E-01 -.652E-01
   -.561E-01 0.561E-01 0.158E+04   0.527E-01 -.527E-01 -.158E+04   0.413E-02 -.413E-02 0.312E+01
   -.486E-13 0.433E-12 0.158E+04   0.563E-15 0.344E-13 -.158E+04   0.108E-23 -.306E-23 0.312E+01
   -.692E+01 -.812E-12 -.154E+04   0.685E+01 0.639E-13 0.154E+04   0.641E-01 0.250E-22 -.456E+01
   -.313E-13 0.692E+01 -.154E+04   0.902E-13 -.685E+01 0.154E+04   -.556E-22 -.641E-01 -.456E+01
   -.219E+01 0.219E+01 -.478E+03   0.218E+01 -.218E+01 0.477E+03   0.804E-02 -.804E-02 0.382E+00
   -.255E-13 0.267E-12 -.483E+03   0.113E-15 0.377E-13 0.483E+03   0.220E-23 -.178E-23 0.266E+00
   -.253E+00 0.729E-11 0.542E+03   0.280E+00 0.639E-13 -.542E+03   -.320E-01 -.208E-22 -.119E+00
   -.460E-13 -.257E+00 0.542E+03   -.139E-13 0.249E+00 -.542E+03   -.141E-23 0.100E-01 -.652E-01
   -.561E-01 -.561E-01 0.158E+04   0.527E-01 0.527E-01 -.158E+04   0.413E-02 0.413E-02 0.312E+01
   -.349E-13 0.744E-12 0.158E+04   0.240E-13 0.843E-13 -.158E+04   -.375E-23 -.130E-22 0.312E+01
   -.223E+02 -.222E-11 -.151E+04   0.220E+02 0.356E-13 0.152E+04   0.263E+00 0.581E-23 -.454E+01
   -.479E-13 -.692E+01 -.154E+04   -.284E-13 0.685E+01 0.154E+04   0.388E-22 0.641E-01 -.456E+01
   -.219E+01 -.219E+01 -.478E+03   0.218E+01 0.218E+01 0.477E+03   0.804E-02 0.804E-02 0.382E+00
   -.455E-13 0.739E-12 -.478E+03   -.638E-13 0.187E-15 0.478E+03   0.586E-23 -.168E-23 0.320E+00
 -----------------------------------------------------------------------------------------------
   0.282E-10 0.170E-10 0.541E+02   0.245E-12 -.467E-12 0.193E-11   0.586E-23 -.954E-16 -.462E+02


 POSITION                                       TOTAL-FORCE (eV/Angst)
 -----------------------------------------------------------------------------------
      4.20243      4.20243     16.35548        -0.000000     -0.000000     -0.004039
      4.20243      4.20243     17.48549        -0.000000     -0.000000      0.015125
      2.10122      0.00000      7.50000         0.000688     -0.000000      0.404083
      4.20243      2.10122      7.50000        -0.000000      0.001083      0.406481
      2.10122      2.10122      9.60122         0.006341      0.006341      0.033726
      4.20243      0.00000      9.60122        -0.000000     -0.000000      0.044832
      2.10212      0.00000     11.71147        -0.001022     -0.000000     -0.001253
      4.20243      2.10557     11.71730        -0.000000     -0.001470     -0.001823
      2.09906      2.09906     13.79300        -0.000073     -0.000073     -0.000142
      4.20243      0.00000     13.79580        -0.000000     -0.000000     -0.001330
      2.10122      4.20243      7.50000         0.001083     -0.000000      0.406481
      4.20243      6.30365      7.50000        -0.000000     -0.001083      0.406481
      2.10122      6.30365      9.60122         0.006341     -0.006341      0.033726
      4.20243      4.20243      9.60122        -0.000000     -0.000000      0.052506
      2.10557      4.20243     11.71730        -0.001470     -0.000000     -0.001823
      4.20243      6.29929     11.71730        -0.000000      0.001470     -0.001823
      2.09906      6.30580     13.79300        -0.000073      0.000073     -0.000142
      4.20243      4.20243     13.85146        -0.000000     -0.000000     -0.000460
      6.30365      0.00000      7.50000        -0.000688     -0.000000      0.404083
      0.00000      2.10122      7.50000        -0.000000      0.000688      0.404083
      6.30365      2.10122      9.60122        -0.006341      0.006341      0.033726
      0.00000      0.00000      9.60122        -0.000000     -0.000000      0.030673
      6.30274      0.00000     11.71147         0.001022     -0.000000     -0.001253
      0.00000      2.10212     11.71147        -0.000000     -0.001022     -0.001253
      6.30580      2.09906     13.79300         0.000073     -0.000073     -0.000142
      0.00000      0.00000     13.79789        -0.000000     -0.000000     -0.004988
      6.30365      4.20243      7.50000        -0.001083     -0.000000      0.406481
      0.00000      6.30365      7.50000        -0.000000     -0.000688      0.404083
      6.30365      6.30365      9.60122        -0.006341     -0.006341      0.033726
      0.00000      4.20243      9.60122        -0.000000     -0.000000      0.044832
      6.29929      4.20243     11.71730         0.001470     -0.000000     -0.001823
      0.00000      6.30274     11.71147        -0.000000      0.001022     -0.001253
      6.30580      6.30580     13.79300         0.000073      0.000073     -0.000142
      0.00000      4.20243     13.79580        -0.000000     -0.000000     -0.001330
      2.10122      0.00000      9.60122        -0.003537     -0.000000      0.047906
      4.20243      2.10122      9.60122        -0.000000      0.009493      0.059635
      2.10122      2.10122      7.50000        -0.001375     -0.001375     -0.494246
      4.20243      0.00000      7.50000        -0.000000     -0.000000     -0.494305
      2.09905      0.00000     13.84324         0.000681     -0.000000     -0.001095
      4.20243      2.09185     13.84558        -0.000000      0.001009     -0.001573
      2.10090      2.10090     11.70746         0.001460      0.001460      0.000489
      4.20243      0.00000     11.70631        -0.000000     -0.000000     -0.000344
      2.10122      4.20243      9.60122         0.009493     -0.000000      0.059635
      4.20243      6.30365      9.60122        -0.000000     -0.009493      0.059635
      2.10122      6.30365      7.50000        -0.001375      0.001375     -0.494246
      4.20243      4.20243      7.50000        -0.000000     -0.000000     -0.496135
      2.09185      4.20243     13.84558         0.001009     -0.000000     -0.001573
      4.20243      6.31301     13.84558        -0.000000     -0.001009     -0.001573
      2.10090      6.30397     11.70746         0.001460     -0.001460      0.000489
      4.20243      4.20243     11.71716        -0.000000     -0.000000     -0.001727
      6.30365      0.00000      9.60122         0.003537     -0.000000      0.047906
      0.00000      2.10122      9.60122        -0.000000     -0.003537      0.047906
      6.30365      2.10122      7.50000         0.001375     -0.001375     -0.494246
      0.00000      0.00000      7.50000        -0.000000     -0.000000     -0.492930
      6.30581      0.00000     13.84324        -0.000681     -0.000000     -0.001095
      0.00000      2.09905     13.84324        -0.000000      0.000681     -0.001095
      6.30397      2.10090     11.70746        -0.001460      0.001460      0.000489
      0.00000      0.00000     11.70673        -0.000000     -0.000000     -0.004482
      6.30365      4.20243      9.60122        -0.009493     -0.000000      0.059635
      0.00000      6.30365      9.60122        -0.000000      0.003537      0.047906
      6.30365      6.30365      7.50000         0.001375      0.001375     -0.494246
      0.00000      4.20243      7.50000        -0.000000     -0.000000     -0.494305
      6.31301      4.20243     13.84558        -0.001009     -0.000000     -0.001573
      0.00000      6.30581     13.84324        -0.000000     -0.000681     -0.001095
      6.30397      6.30397     11.70746        -0.001460     -0.001460      0.000489
      0.00000      4.20243     11.70631        -0.000000     -0.000000     -0.000344
 -----------------------------------------------------------------------------------
    total drift:                                0.000000      0.000000     -0.000722


--------------------------------------------------------------------------------------------------------



  FREE ENERGIE OF THE ION-ELECTRON SYSTEM (eV)
  ---------------------------------------------------
  free  energy   TOTEN  =      -456.94495825 eV

  energy  without entropy=     -456.94495825  energy(sigma->0) =     -456.94495825



--------------------------------------------------------------------------------------------------------


    POTLOK:  cpu time      0.3665: real time      0.3673


--------------------------------------------------------------------------------------------------------


     LOOP+:  cpu time   5607.1834: real time   5630.8034
    4ORBIT:  cpu time      0.0000: real time      0.0000

 total amount of memory used by VASP MPI-rank0   206426. kBytes
=======================================================================

   base      :      30000. kBytes
   nonl-proj :      14621. kBytes
   fftplans  :       8012. kBytes
   grid      :       8190. kBytes
   one-center:         73. kBytes
   HF        :        101. kBytes
   nonlr-proj:      16379. kBytes
   wavefun   :       7440. kBytes
   fock_wrk  :     121610. kBytes



 General timing and accounting informations for this job:
 ========================================================

                  Total CPU time used (sec):     5609.790
                            User time (sec):     5034.169
                          System time (sec):      575.621
                         Elapsed time (sec):     5634.094

                   Maximum memory used (kb):      587600.
                   Average memory used (kb):          N/A

                          Minor page faults:       228408
                          Major page faults:          100
                 Voluntary context switches:         3940
