 vasp.6.3.0 20Jan22 (build Mar 11 2022 13:48:16) complex                        
  
 executed on             LinuxIFC date 2023.12.26  17:35:43
 running on  304 total cores
 distrk:  each k-point on  304 cores,    1 groups
 distr:  one band on NCORE=   2 cores,  152 groups


--------------------------------------------------------------------------------------------------------


 INCAR:
   SYSTEM = MgO-rocksalt
   ISMEAR = 0
   SIGMA = 0.05
   EDIFF = 1E-5
   ALGO = ALL
   ISTART = 0
   IBRION = -1
   NSW = 0
   ISYM = 2
   ISIF = 2
   DIPOL = 0.5 0.5 0.5
   IDIPOL = 3
   LDIPOL = .TRUE.
   GGA = MK
   LUSE_VDW = .TRUE.
   PARAM1 = 0.1234
   PARAM2 = 0.711357
   ZAB_VDW = -1.8867
   AGGAC = 0.0
   ENCUT = 600
   PREC = Accurate
   LASPH = .TRUE.
   LREAL = .FALSE.
   ISPIN = 1
   NELM = 200
   NELMIN = 8
   NCORE = 2
   KPAR = 1
   LWAVE = .FALSE.
   LCHARG = .FALSE.

 POTCAR:    PAW_PBE C 08Apr2002                   
 POTCAR:    PAW_PBE O 08Apr2002                   
 POTCAR:    PAW_PBE Mg_pv 13Apr2007               
 POTCAR:    PAW_PBE O 08Apr2002                   
 -----------------------------------------------------------------------------
|                                                                             |
|           W    W    AA    RRRRR   N    N  II  N    N   GGGG   !!!           |
|           W    W   A  A   R    R  NN   N  II  NN   N  G    G  !!!           |
|           W    W  A    A  R    R  N N  N  II  N N  N  G       !!!           |
|           W WW W  AAAAAA  RRRRR   N  N N  II  N  N N  G  GGG   !            |
|           WW  WW  A    A  R   R   N   NN  II  N   NN  G    G                |
|           W    W  A    A  R    R  N    N  II  N    N   GGGG   !!!           |
|                                                                             |
|     For optimal performance we recommend to set                             |
|       NCORE = 2 up to number-of-cores-per-socket                            |
|     NCORE specifies how many cores store one orbital (NPAR=cpu/NCORE).      |
|     This setting can greatly improve the performance of VASP for DFT.       |
|     The default, NCORE=1 might be grossly inefficient on modern             |
|     multi-core architectures or massively parallel machines. Do your        |
|     own testing! More info at https://www.vasp.at/wiki/index.php/NCORE      |
|     Unfortunately you need to use the default for GW and RPA                |
|     calculations (for HF NCORE is supported but not extensively tested      |
|     yet).                                                                   |
|                                                                             |
 -----------------------------------------------------------------------------

 -----------------------------------------------------------------------------
|                                                                             |
|               ----> ADVICE to this user running VASP <----                  |
|                                                                             |
|     You have switched on vdW-DFT.                                           |
|     This routine was written and supplied by Jiri Klimes. We recommend      |
|     that you carefully read and cite the following publications:            |
|       J. Klimes, D.R. Bowler, A. Michelides                                 |
|          J. Phys.: Cond Matt. 22 022201 (2010)                              |
|       J. Klimes, D.R. Bowler, A. Michelides                                 |
|          Phys. Rev. B. 83, 195131 (2011)                                    |
|     and references therein.                                                 |
|                                                                             |
 -----------------------------------------------------------------------------

 POTCAR:    PAW_PBE C 08Apr2002                   
   SHA256 =  253f7b50bb8d59471dbedb8285d89021f4a42ed1a2c5d38a03a736e69125dd95 C/POTCAR              
   COPYR  = (c) Copyright 08Apr2002 Georg Kresse                                                    
   COPYR  = This file is part of the software VASP. Any use, copying, and all other rights are regul
   COPYR  = If you do not have a valid VASP license, you may not use, copy or distribute this file. 
   VRHFIN =C: s2p2                                                                                  
   LEXCH  = PE                                                                                      
   EATOM  =   147.1560 eV,   10.8157 Ry                                                             
                                                                                                    
   TITEL  = PAW_PBE C 08Apr2002                                                                     
   LULTRA =        F    use ultrasoft PP ?                                                          
   IUNSCR =        1    unscreen: 0-lin 1-nonlin 2-no                                               
   RPACOR =    1.200    partial core radius                                                         
   POMASS =   12.011; ZVAL   =    4.000    mass and valenz                                          
   RCORE  =    1.500    outmost cutoff radius                                                       
   RWIGS  =    1.630; RWIGS  =    0.863    wigner-seitz radius (au A)                               
   ENMAX  =  400.000; ENMIN  =  300.000 eV                                                          
   ICORE  =        2    local potential                                                             
   LCOR   =        T    correct aug charges                                                         
   LPAW   =        T    paw PP                                                                      
   EAUG   =  644.873                                                                                
   DEXC   =    0.000                                                                                
   RMAX   =    1.529    core radius for proj-oper                                                   
   RAUG   =    1.300    factor for augmentation sphere                                              
   RDEP   =    1.501    radius for radial grids                                                     
   RDEPT  =    1.300    core radius for aug-charge                                                  
                                                                                                    
   Atomic configuration                                                                             
    4 entries                                                                                       
     n  l   j            E        occ.                                                              
     1  0  0.50      -273.3789   2.0000                                                             
     2  0  0.50       -13.7508   2.0000                                                             
     2  1  0.50        -5.2854   2.0000                                                             
     3  2  1.50        -5.4423   0.0000                                                             
   Description                                                                                      
     l       E           TYP  RCUT    TYP  RCUT                                                     
     0    -13.7508458     23  1.200                                                                 
     0     -8.2022199     23  1.200                                                                 
     1     -5.2854383     23  1.500                                                                 
     1     34.0145650     23  1.500                                                                 
     2     -5.4423304      7  1.500                                                                 
  local pseudopotential read in
  partial core-charges read in
  partial kinetic energy density read in
  atomic valenz-charges read in
  non local Contribution for L=           0  read in
    real space projection operators read in
  non local Contribution for L=           0  read in
    real space projection operators read in
  non local Contribution for L=           1  read in
    real space projection operators read in
  non local Contribution for L=           1  read in
    real space projection operators read in
    PAW grid and wavefunctions read in
 
   number of l-projection  operators is LMAX  =           4
   number of lm-projection operators is LMMAX =           8
 
 POTCAR:    PAW_PBE O 08Apr2002                   
   SHA256 =  818f92134a0a090dccd8ba1447fa70422a3b330e708bb4f08108d8ae51209ddf O/POTCAR              
   COPYR  = (c) Copyright 08Apr2002 Georg Kresse                                                    
   COPYR  = This file is part of the software VASP. Any use, copying, and all other rights are regul
   COPYR  = If you do not have a valid VASP license, you may not use, copy or distribute this file. 
   VRHFIN =O: s2p4                                                                                  
   LEXCH  = PE                                                                                      
   EATOM  =   432.3788 eV,   31.7789 Ry                                                             
                                                                                                    
   TITEL  = PAW_PBE O 08Apr2002                                                                     
   LULTRA =        F    use ultrasoft PP ?                                                          
   IUNSCR =        1    unscreen: 0-lin 1-nonlin 2-no                                               
   RPACOR =    1.200    partial core radius                                                         
   POMASS =   16.000; ZVAL   =    6.000    mass and valenz                                          
   RCORE  =    1.520    outmost cutoff radius                                                       
   RWIGS  =    1.550; RWIGS  =    0.820    wigner-seitz radius (au A)                               
   ENMAX  =  400.000; ENMIN  =  300.000 eV                                                          
   ICORE  =        2    local potential                                                             
   LCOR   =        T    correct aug charges                                                         
   LPAW   =        T    paw PP                                                                      
   EAUG   =  605.392                                                                                
   DEXC   =    0.000                                                                                
   RMAX   =    1.553    core radius for proj-oper                                                   
   RAUG   =    1.300    factor for augmentation sphere                                              
   RDEP   =    1.550    radius for radial grids                                                     
   RDEPT  =    1.329    core radius for aug-charge                                                  
                                                                                                    
   Atomic configuration                                                                             
    4 entries                                                                                       
     n  l   j            E        occ.                                                              
     1  0  0.50      -514.6923   2.0000                                                             
     2  0  0.50       -23.9615   2.0000                                                             
     2  1  0.50        -9.0305   4.0000                                                             
     3  2  1.50        -9.5241   0.0000                                                             
   Description                                                                                      
     l       E           TYP  RCUT    TYP  RCUT                                                     
     0    -23.9615318     23  1.200                                                                 
     0     -9.5240782     23  1.200                                                                 
     1     -9.0304911     23  1.520                                                                 
     1      8.1634956     23  1.520                                                                 
     2     -9.5240782      7  1.500                                                                 
  local pseudopotential read in
  partial core-charges read in
  partial kinetic energy density read in
  kinetic energy density of atom read in
  atomic valenz-charges read in
  non local Contribution for L=           0  read in
    real space projection operators read in
  non local Contribution for L=           0  read in
    real space projection operators read in
  non local Contribution for L=           1  read in
    real space projection operators read in
  non local Contribution for L=           1  read in
    real space projection operators read in
    PAW grid and wavefunctions read in
 
   number of l-projection  operators is LMAX  =           4
   number of lm-projection operators is LMMAX =           8
 
 POTCAR:    PAW_PBE Mg_pv 13Apr2007               
   SHA256 =  f474ac0dd33840b9ae76c01d57fea79fdf77cdfbb07d5ade72c65f83c709b62b Mg_pv/POTCAR          
   COPYR  = (c) Copyright 13Apr2007 Georg Kresse                                                    
   COPYR  = This file is part of the software VASP. Any use, copying, and all other rights are regul
   COPYR  = If you do not have a valid VASP license, you may not use, copy or distribute this file. 
   VRHFIN =Mg: p6s2                                                                                 
   LEXCH  = PE                                                                                      
   EATOM  =  1056.7344 eV,   77.6678 Ry                                                             
                                                                                                    
   TITEL  = PAW_PBE Mg_pv 13Apr2007                                                                 
   LULTRA =        F    use ultrasoft PP ?                                                          
   IUNSCR =        1    unscreen: 0-lin 1-nonlin 2-no                                               
   RPACOR =    1.500    partial core radius                                                         
   POMASS =   24.305; ZVAL   =    8.000    mass and valenz                                          
   RCORE  =    2.000    outmost cutoff radius                                                       
   RWIGS  =    2.000; RWIGS  =    1.058    wigner-seitz radius (au A)                               
   ENMAX  =  403.929; ENMIN  =  302.947 eV                                                          
   RCLOC  =    1.506    cutoff for local pot                                                        
   LCOR   =        T    correct aug charges                                                         
   LPAW   =        T    paw PP                                                                      
   EAUG   =  758.780                                                                                
   DEXC   =    0.000                                                                                
   RMAX   =    2.045    core radius for proj-oper                                                   
   RAUG   =    1.300    factor for augmentation sphere                                              
   RDEP   =    2.025    radius for radial grids                                                     
   RDEPT  =    1.557    core radius for aug-charge                                                  
                                                                                                    
   Atomic configuration                                                                             
    5 entries                                                                                       
     n  l   j            E        occ.                                                              
     1  0  0.50     -1259.6230   2.0000                                                             
     2  0  0.50       -79.8442   2.0000                                                             
     2  1  1.50       -46.6121   6.0000                                                             
     3  0  0.50        -4.7055   2.0000                                                             
     3  2  1.50        -1.3606   0.0000                                                             
   Description                                                                                      
     l       E           TYP  RCUT    TYP  RCUT                                                     
     1    -46.6121073     23  1.600                                                                 
     1      2.7211652     23  1.600                                                                 
     0     -4.7054661     23  2.000                                                                 
     0     61.2262170     23  2.000                                                                 
     2     -1.3605826     23  2.000                                                                 
  local pseudopotential read in
  partial core-charges read in
  partial kinetic energy density read in
  atomic valenz-charges read in
  non local Contribution for L=           1  read in
    real space projection operators read in
  non local Contribution for L=           1  read in
    real space projection operators read in
  non local Contribution for L=           0  read in
    real space projection operators read in
  non local Contribution for L=           0  read in
    real space projection operators read in
  non local Contribution for L=           2  read in
    real space projection operators read in
    PAW grid and wavefunctions read in
 
   number of l-projection  operators is LMAX  =           5
   number of lm-projection operators is LMMAX =          13
 
 POTCAR:    PAW_PBE O 08Apr2002                   
   SHA256 =  818f92134a0a090dccd8ba1447fa70422a3b330e708bb4f08108d8ae51209ddf O/POTCAR              
   COPYR  = (c) Copyright 08Apr2002 Georg Kresse                                                    
   COPYR  = This file is part of the software VASP. Any use, copying, and all other rights are regul
   COPYR  = If you do not have a valid VASP license, you may not use, copy or distribute this file. 
   VRHFIN =O: s2p4                                                                                  
   LEXCH  = PE                                                                                      
   EATOM  =   432.3788 eV,   31.7789 Ry                                                             
                                                                                                    
   TITEL  = PAW_PBE O 08Apr2002                                                                     
   LULTRA =        F    use ultrasoft PP ?                                                          
   IUNSCR =        1    unscreen: 0-lin 1-nonlin 2-no                                               
   RPACOR =    1.200    partial core radius                                                         
   POMASS =   16.000; ZVAL   =    6.000    mass and valenz                                          
   RCORE  =    1.520    outmost cutoff radius                                                       
   RWIGS  =    1.550; RWIGS  =    0.820    wigner-seitz radius (au A)                               
   ENMAX  =  400.000; ENMIN  =  300.000 eV                                                          
   ICORE  =        2    local potential                                                             
   LCOR   =        T    correct aug charges                                                         
   LPAW   =        T    paw PP                                                                      
   EAUG   =  605.392                                                                                
   DEXC   =    0.000                                                                                
   RMAX   =    1.553    core radius for proj-oper                                                   
   RAUG   =    1.300    factor for augmentation sphere                                              
   RDEP   =    1.550    radius for radial grids                                                     
   RDEPT  =    1.329    core radius for aug-charge                                                  
                                                                                                    
   Atomic configuration                                                                             
    4 entries                                                                                       
     n  l   j            E        occ.                                                              
     1  0  0.50      -514.6923   2.0000                                                             
     2  0  0.50       -23.9615   2.0000                                                             
     2  1  0.50        -9.0305   4.0000                                                             
     3  2  1.50        -9.5241   0.0000                                                             
   Description                                                                                      
     l       E           TYP  RCUT    TYP  RCUT                                                     
     0    -23.9615318     23  1.200                                                                 
     0     -9.5240782     23  1.200                                                                 
     1     -9.0304911     23  1.520                                                                 
     1      8.1634956     23  1.520                                                                 
     2     -9.5240782      7  1.500                                                                 
  local pseudopotential read in
  partial core-charges read in
  partial kinetic energy density read in
  kinetic energy density of atom read in
  atomic valenz-charges read in
  non local Contribution for L=           0  read in
    real space projection operators read in
  non local Contribution for L=           0  read in
    real space projection operators read in
  non local Contribution for L=           1  read in
    real space projection operators read in
  non local Contribution for L=           1  read in
    real space projection operators read in
    PAW grid and wavefunctions read in
 
   number of l-projection  operators is LMAX  =           4
   number of lm-projection operators is LMMAX =           8
 
 -----------------------------------------------------------------------------
|                                                                             |
|               ----> ADVICE to this user running VASP <----                  |
|                                                                             |
|     You have a (more or less) 'large supercell' and for larger cells it     |
|     might be more efficient to use real-space projection operators.         |
|     Therefore, try LREAL= Auto in the INCAR file.                           |
|     Mind: For very accurate calculation, you might also keep the            |
|     reciprocal projection scheme (i.e. LREAL=.FALSE.).                      |
|                                                                             |
 -----------------------------------------------------------------------------

 -----------------------------------------------------------------------------
|                                                                             |
|               ----> ADVICE to this user running VASP <----                  |
|                                                                             |
|     You enforced a specific xc type in the INCAR file but a different       |
|     type was found in the POTCAR file.                                      |
|     I HOPE YOU KNOW WHAT YOU ARE DOING!                                     |
|                                                                             |
 -----------------------------------------------------------------------------

  PAW_PBE C 08Apr2002                   :
 energy of atom  1       EATOM= -147.1560
 kinetic energy error for atom=    0.0057 (will be added to EATOM!!)
  PAW_PBE O 08Apr2002                   :
 energy of atom  2       EATOM= -432.3788
 kinetic energy error for atom=    0.0168 (will be added to EATOM!!)
  PAW_PBE Mg_pv 13Apr2007               :
 energy of atom  3       EATOM=-1056.7344
 kinetic energy error for atom=    0.0221 (will be added to EATOM!!)
  PAW_PBE O 08Apr2002                   :
 energy of atom  4       EATOM= -432.3788
 kinetic energy error for atom=    0.0168 (will be added to EATOM!!)
 
 
 POSCAR:  C  O Mg  O
  positions in direct lattice
  No initial velocities read in
 exchange correlation table for  LEXCH =       43
   RHO(1)=    0.500       N(1)  =     2000
   RHO(2)=  100.500       N(2)  =     4000
 


--------------------------------------------------------------------------------------------------------


 ion  position               nearest neighbor table
   1  0.500  0.500  0.765-   2 1.15
   2  0.500  0.500  0.819-   1 1.15
   3  0.000  0.750  0.352-  35 2.11  37 2.11  38 2.11  45 2.11  54 2.11
   4  0.250  0.000  0.352-  36 2.11  37 2.11  38 2.11  46 2.11  53 2.11
   5  0.000  0.000  0.451-  37 2.11  36 2.11  35 2.11  43 2.11  52 2.11  41 2.12
   6  0.250  0.750  0.451-  38 2.11  36 2.11  35 2.11  44 2.11  51 2.11  42 2.12
   7  0.000  0.750  0.550-  49 2.11  42 2.11  58 2.11  41 2.11  35 2.12  39 2.15
   8  0.250  0.000  0.550-  57 2.11  50 2.11  42 2.11  41 2.11  36 2.12  40 2.15
   9  0.000  0.000  0.649-  39 2.11  40 2.11  47 2.11  56 2.11  41 2.11
  10  0.250  0.750  0.649-  42 2.11  40 2.11  39 2.11  48 2.11  55 2.11
  11  0.000  0.250  0.352-  43 2.11  37 2.11  45 2.11  46 2.11  62 2.11
  12  0.250  0.500  0.352-  44 2.11  38 2.11  45 2.11  46 2.11  61 2.11
  13  0.000  0.500  0.451-  45 2.11  43 2.11  44 2.11  35 2.11  60 2.11  49 2.12
  14  0.250  0.250  0.451-  46 2.11  43 2.11  44 2.11  36 2.11  59 2.11  50 2.12
  15  0.000  0.250  0.550-  49 2.11  50 2.11  66 2.11  41 2.11  43 2.12  47 2.15
  16  0.250  0.500  0.550-  65 2.11  50 2.11  42 2.11  49 2.11  44 2.13  48 2.15
  17  0.000  0.500  0.649-  48 2.10  64 2.10  49 2.11  47 2.11  39 2.11
  18  0.250  0.250  0.649-  50 2.11  47 2.11  40 2.11  48 2.11  63 2.11
  19  0.500  0.750  0.352-  51 2.11  38 2.11  53 2.11  54 2.11  61 2.11
  20  0.750  0.000  0.352-  52 2.11  37 2.11  53 2.11  54 2.11  62 2.11
  21  0.500  0.000  0.451-  53 2.11  51 2.11  52 2.11  36 2.11  59 2.11  57 2.12
  22  0.750  0.750  0.451-  54 2.11  51 2.11  52 2.11  35 2.11  60 2.11  58 2.12
  23  0.500  0.750  0.550-  65 2.11  58 2.11  42 2.11  57 2.11  51 2.13  55 2.15
  24  0.750  0.000  0.550-  57 2.11  58 2.11  66 2.11  41 2.11  52 2.12  56 2.15
  25  0.500  0.000  0.649-  55 2.10  63 2.10  57 2.11  40 2.11  56 2.11
  26  0.750  0.750  0.649-  58 2.11  56 2.11  39 2.11  55 2.11  64 2.11
  27  0.500  0.250  0.352-  59 2.11  53 2.11  46 2.11  61 2.11  62 2.11
  28  0.750  0.500  0.352-  60 2.11  54 2.11  45 2.11  61 2.11  62 2.11
  29  0.500  0.500  0.451-  61 2.11  51 2.11  59 2.11  60 2.11  44 2.11  65 2.13
  30  0.750  0.250  0.451-  62 2.11  52 2.11  59 2.11  60 2.11  43 2.11  66 2.12
  31  0.500  0.250  0.550-  65 2.11  50 2.11  66 2.11  57 2.11  59 2.13  63 2.15
  32  0.750  0.500  0.550-  65 2.11  58 2.11  66 2.11  49 2.11  60 2.13  64 2.15
  33  0.500  0.500  0.651-  48 2.12  55 2.12  63 2.12  64 2.12  65 2.14
  34  0.750  0.250  0.649-  66 2.11  56 2.11  47 2.11  64 2.11  63 2.11
  35  0.000  0.750  0.451-   3 2.11   5 2.11   6 2.11  13 2.11  22 2.11   7 2.12
  36  0.250  0.000  0.451-   4 2.11   5 2.11   6 2.11  14 2.11  21 2.11   8 2.12
  37  0.000  0.000  0.352-   5 2.11   4 2.11   3 2.11  11 2.11  20 2.11
  38  0.250  0.750  0.352-   6 2.11   4 2.11   3 2.11  12 2.11  19 2.11
  39  0.000  0.750  0.651-   9 2.11  10 2.11  26 2.11  17 2.11   7 2.15
  40  0.250  0.000  0.651-   9 2.11  10 2.11  18 2.11  25 2.11   8 2.15
  41  0.000  0.000  0.550-   9 2.11   8 2.11   7 2.11  15 2.11  24 2.11   5 2.12
  42  0.250  0.750  0.550-  10 2.11   8 2.11   7 2.11  16 2.11  23 2.11   6 2.12
  43  0.000  0.250  0.451-  11 2.11   5 2.11  13 2.11  14 2.11  30 2.11  15 2.12
  44  0.250  0.500  0.451-  12 2.11   6 2.11  13 2.11  14 2.11  29 2.11  16 2.13
  45  0.000  0.500  0.352-  13 2.11  11 2.11  12 2.11   3 2.11  28 2.11
  46  0.250  0.250  0.352-  14 2.11  11 2.11  12 2.11   4 2.11  27 2.11
  47  0.000  0.250  0.651-   9 2.11  18 2.11  34 2.11  17 2.11  15 2.15
  48  0.249  0.500  0.651-  17 2.10  10 2.11  18 2.11  33 2.12  16 2.15
  49  0.000  0.500  0.550-  17 2.11  15 2.11   7 2.11  16 2.11  32 2.11  13 2.12
  50  0.250  0.250  0.550-  18 2.11  15 2.11   8 2.11  16 2.11  31 2.11  14 2.12
  51  0.500  0.750  0.451-  19 2.11   6 2.11  21 2.11  22 2.11  29 2.11  23 2.13
  52  0.750  0.000  0.451-  20 2.11   5 2.11  21 2.11  22 2.11  30 2.11  24 2.12
  53  0.500  0.000  0.352-  21 2.11  19 2.11  20 2.11   4 2.11  27 2.11
  54  0.750  0.750  0.352-  22 2.11  19 2.11  20 2.11   3 2.11  28 2.11
  55  0.500  0.751  0.651-  25 2.10  10 2.11  26 2.11  33 2.12  23 2.15
  56  0.750  0.000  0.651-   9 2.11  26 2.11  34 2.11  25 2.11  24 2.15
  57  0.500  0.000  0.550-  25 2.11  24 2.11   8 2.11  23 2.11  31 2.11  21 2.12
  58  0.750  0.750  0.550-  26 2.11  24 2.11   7 2.11  32 2.11  23 2.11  22 2.12
  59  0.500  0.250  0.451-  27 2.11  21 2.11  14 2.11  29 2.11  30 2.11  31 2.13
  60  0.750  0.500  0.451-  28 2.11  22 2.11  13 2.11  29 2.11  30 2.11  32 2.13
  61  0.500  0.500  0.352-  29 2.11  19 2.11  27 2.11  28 2.11  12 2.11
  62  0.750  0.250  0.352-  30 2.11  20 2.11  27 2.11  28 2.11  11 2.11
  63  0.500  0.249  0.651-  25 2.10  18 2.11  34 2.11  33 2.12  31 2.15
  64  0.751  0.500  0.651-  17 2.10  26 2.11  34 2.11  33 2.12  32 2.15
  65  0.500  0.500  0.550-  16 2.11  23 2.11  31 2.11  32 2.11  29 2.13  33 2.14
  66  0.750  0.250  0.550-  34 2.11  24 2.11  15 2.11  32 2.11  31 2.11  30 2.12
 
  LATTYP: Found a simple tetragonal cell.
 ALAT       =     8.4409846542
 C/A-ratio  =     2.5270438657
  
  Lattice vectors:
  
 A1 = (   8.4409846542,   0.0000000000,   0.0000000000)
 A2 = (   0.0000000000,   8.4409846542,   0.0000000000)
 A3 = (   0.0000000000,   0.0000000000,  21.3307384906)


Analysis of symmetry for initial positions (statically):
=====================================================================
 Subroutine PRICEL returns:
 Original cell was already a primitive cell.
 

 Routine SETGRP: Setting up the symmetry group for a 
 simple tetragonal supercell.


 Subroutine GETGRP returns: Found  8 space group operations
 (whereof  8 operations were pure point group operations)
 out of a pool of 16 trial point group operations.


The static configuration has the point symmetry C_4v.


Analysis of symmetry for dynamics (positions and initial velocities):
=====================================================================
 Subroutine PRICEL returns:
 Original cell was already a primitive cell.
 

 Routine SETGRP: Setting up the symmetry group for a 
 simple tetragonal supercell.


 Subroutine GETGRP returns: Found  8 space group operations
 (whereof  8 operations were pure point group operations)
 out of a pool of 16 trial point group operations.


The dynamic configuration has the point symmetry C_4v.


Analysis of constrained symmetry for selective dynamics:
=====================================================================
 Subroutine PRICEL returns:
 Original cell was already a primitive cell.
 

 Routine SETGRP: Setting up the symmetry group for a 
 simple tetragonal supercell.


 Subroutine GETGRP returns: Found  8 space group operations
 (whereof  8 operations were pure point group operations)
 out of a pool of 16 trial point group operations.


The constrained configuration has the point symmetry C_4v.


 Subroutine INISYM returns: Found  8 space group operations
 (whereof  8 operations are pure point group operations),
 and found     1 'primitive' translations


----------------------------------------------------------------------------------------

                                     Primitive cell                                     

  volume of cell :    1519.8199

  direct lattice vectors                    reciprocal lattice vectors
     8.440984654  0.000000000  0.000000000     0.118469591  0.000000000  0.000000000
     0.000000000  8.440984654  0.000000000     0.000000000  0.118469591  0.000000000
     0.000000000  0.000000000 21.330738491     0.000000000  0.000000000  0.046880702

  length of vectors
     8.440984654  8.440984654 21.330738491     0.118469591  0.118469591  0.046880702

  position of ions in fractional coordinates (direct lattice)
     0.500000000  0.500000000  0.765053803
     0.500000000  0.500000000  0.818817521
     0.000000000  0.750000000  0.351605267
     0.250000000  0.000000000  0.351605267
     0.000000000  0.000000000  0.450535089
     0.250000000  0.750000000  0.450535089
     0.000000000  0.749939268  0.550083239
     0.250060732  0.000000000  0.550083239
     0.000000000  0.000000000  0.648745309
     0.249858327  0.750141673  0.648569547
     0.000000000  0.250000000  0.351605267
     0.250000000  0.500000000  0.351605267
     0.000000000  0.500000000  0.450535089
     0.250000000  0.250000000  0.450535089
     0.000000000  0.250060732  0.550083239
     0.250378379  0.500000000  0.550219524
     0.000000000  0.500000000  0.648615280
     0.249858327  0.249858327  0.648569547
     0.500000000  0.750000000  0.351605267
     0.750000000  0.000000000  0.351605267
     0.500000000  0.000000000  0.450535089
     0.750000000  0.750000000  0.450535089
     0.500000000  0.749621621  0.550219524
     0.749939268  0.000000000  0.550083239
     0.500000000  0.000000000  0.648615280
     0.750141673  0.750141673  0.648569547
     0.500000000  0.250000000  0.351605267
     0.750000000  0.500000000  0.351605267
     0.500000000  0.500000000  0.450535089
     0.750000000  0.250000000  0.450535089
     0.500000000  0.250378379  0.550219524
     0.749621621  0.500000000  0.550219524
     0.500000000  0.500000000  0.650616960
     0.750141673  0.249858327  0.648569547
     0.000000000  0.750000000  0.450535089
     0.250000000  0.000000000  0.450535089
     0.000000000  0.000000000  0.351605267
     0.250000000  0.750000000  0.351605267
     0.000000000  0.750218533  0.650979255
     0.249781467  0.000000000  0.650979255
     0.000000000  0.000000000  0.549809890
     0.249945770  0.750054230  0.549859113
     0.000000000  0.250000000  0.450535089
     0.250000000  0.500000000  0.450535089
     0.000000000  0.500000000  0.351605267
     0.250000000  0.250000000  0.351605267
     0.000000000  0.249781467  0.650979255
     0.248822710  0.500000000  0.650882872
     0.000000000  0.500000000  0.549762666
     0.249945770  0.249945770  0.549859113
     0.500000000  0.750000000  0.450535089
     0.750000000  0.000000000  0.450535089
     0.500000000  0.000000000  0.351605267
     0.750000000  0.750000000  0.351605267
     0.500000000  0.751177290  0.650882872
     0.750218533  0.000000000  0.650979255
     0.500000000  0.000000000  0.549762666
     0.750054230  0.750054230  0.549859113
     0.500000000  0.250000000  0.450535089
     0.750000000  0.500000000  0.450535089
     0.500000000  0.500000000  0.351605267
     0.750000000  0.250000000  0.351605267
     0.500000000  0.248822710  0.650882872
     0.751177290  0.500000000  0.650882872
     0.500000000  0.500000000  0.550231357
     0.750054230  0.249945770  0.549859113

  ion indices of the primitive-cell ions
   primitive index   ion index
                 1           1
                 2           2
                 3           3
                 4           4
                 5           5
                 6           6
                 7           7
                 8           8
                 9           9
                10          10
                11          11
                12          12
                13          13
                14          14
                15          15
                16          16
                17          17
                18          18
                19          19
                20          20
                21          21
                22          22
                23          23
                24          24
                25          25
                26          26
                27          27
                28          28
                29          29
                30          30
                31          31
                32          32
                33          33
                34          34
                35          35
                36          36
                37          37
                38          38
                39          39
                40          40
                41          41
                42          42
                43          43
                44          44
                45          45
                46          46
                47          47
                48          48
                49          49
                50          50
                51          51
                52          52
                53          53
                54          54
                55          55
                56          56
                57          57
                58          58
                59          59
                60          60
                61          61
                62          62
                63          63
                64          64
                65          65
                66          66

----------------------------------------------------------------------------------------

 
 
 KPOINTS: pymatgen v2020.8.13 with grid density = 

Automatic generation of k-mesh.
 Grid dimensions read from file:
 generate k-points for:    2    2    1

 Generating k-lattice:

  Cartesian coordinates                     Fractional coordinates (reciprocal lattice)
     0.059234796  0.000000000  0.000000000     0.500000000  0.000000000  0.000000000
     0.000000000  0.059234796  0.000000000     0.000000000  0.500000000  0.000000000
     0.000000000  0.000000000  0.046880702     0.000000000  0.000000000  1.000000000

  Length of vectors
     0.059234796  0.059234796  0.046880702

  Shift w.r.t. Gamma in fractional coordinates (k-lattice)
     0.000000000  0.000000000  0.000000000

 
 Subroutine IBZKPT returns following result:
 ===========================================
 
 Found      3 irreducible k-points:
 
 Following reciprocal coordinates:
            Coordinates               Weight
  0.000000  0.000000  0.000000      1.000000
  0.500000  0.000000  0.000000      2.000000
  0.500000  0.500000  0.000000      1.000000
 
 Following cartesian coordinates:
            Coordinates               Weight
  0.000000  0.000000  0.000000      1.000000
  0.059235  0.000000  0.000000      2.000000
  0.059235  0.059235  0.000000      1.000000
 


--------------------------------------------------------------------------------------------------------




 Dimension of arrays:
   k-points           NKPTS =      3   k-points in BZ     NKDIM =      3   number of bands    NBANDS=    304
   number of dos      NEDOS =    301   number of ions     NIONS =     66
   non local maximal  LDIM  =      5   non local SUM 2l+1 LMDIM =     13
   total plane-waves  NPLWV = 882000
   max r-space proj   IRMAX =      1   max aug-charges    IRDMAX=  11635
   dimension x,y,z NGX =    70 NGY =   70 NGZ =  180
   dimension x,y,z NGXF=   140 NGYF=  140 NGZF=  360
   support grid    NGXF=   140 NGYF=  140 NGZF=  360
   ions per type =               1   1  32  32
   NGX,Y,Z   is equivalent  to a cutoff of  13.79, 13.79, 14.03 a.u.
   NGXF,Y,Z  is equivalent  to a cutoff of  27.57, 27.57, 28.06 a.u.

 SYSTEM =  MgO-rocksalt                            
 POSCAR =   C  O Mg  O                             

 Startparameter for this run:
   NWRITE =      2    write-flag & timer
   PREC   = accura    normal or accurate (medium, high low for compatibility)
   ISTART =      0    job   : 0-new  1-cont  2-samecut
   ICHARG =      2    charge: 1-file 2-atom 10-const
   ISPIN  =      1    spin polarized calculation?
   LNONCOLLINEAR =      F non collinear calculations
   LSORBIT =      F    spin-orbit coupling
   INIWAV =      1    electr: 0-lowe 1-rand  2-diag
   LASPH  =      T    aspherical Exc in radial PAW
 Electronic Relaxation 1
   ENCUT  =  600.0 eV  44.10 Ry    6.64 a.u.  16.86 16.86 42.60*2*pi/ulx,y,z
   ENINI  =  600.0     initial cutoff
   ENAUG  =  758.8 eV  augmentation charge cutoff
   NELM   =    200;   NELMIN=  8; NELMDL= -5     # of ELM steps 
   EDIFF  = 0.1E-04   stopping-criterion for ELM
   LREAL  =      F    real-space projection
   NLSPLINE    = F    spline interpolate recip. space projectors
   LCOMPAT=      F    compatible to vasp.4.4
   GGA_COMPAT  = T    GGA compatible to vasp.4.4-vasp.4.6
   LMAXPAW     = -100 max onsite density
   LMAXMIX     =    2 max onsite mixed and CHGCAR
   VOSKOWN=      0    Vosko Wilk Nusair interpolation
   ROPT   =    0.00000   0.00000   0.00000   0.00000
 Ionic relaxation
   EDIFFG = 0.1E-03   stopping-criterion for IOM
   NSW    =      0    number of steps for IOM
   NBLOCK =      1;   KBLOCK =      1    inner block; outer block 
   IBRION =     -1    ionic relax: 0-MD 1-quasi-New 2-CG
   NFREE  =      0    steps in history (QN), initial steepest desc. (CG)
   ISIF   =      2    stress and relaxation
   IWAVPR =     10    prediction:  0-non 1-charg 2-wave 3-comb
   ISYM   =      2    0-nonsym 1-usesym 2-fastsym
   LCORR  =      T    Harris-Foulkes like correction to forces

   POTIM  = 0.5000    time-step for ionic-motion
   TEIN   =    0.0    initial temperature
   TEBEG  =    0.0;   TEEND  =   0.0 temperature during run
   SMASS  =  -3.00    Nose mass-parameter (am)
   estimated Nose-frequenzy (Omega)   =  0.10E-29 period in steps = 0.13E+47 mass=  -0.163E-26a.u.
   SCALEE = 1.0000    scale energy and forces
   NPACO  =    256;   APACO  = 10.0  distance and # of slots for P.C.
   PSTRESS=    0.0 pullay stress

  Mass of Ions in am
   POMASS =  12.01 16.00 24.30 16.00
  Ionic Valenz
   ZVAL   =   4.00  6.00  8.00  6.00
  Atomic Wigner-Seitz radii
   RWIGS  =  -1.00 -1.00 -1.00 -1.00
  virtual crystal weights 
   VCA    =   1.00  1.00  1.00  1.00
   NELECT =     458.0000    total number of electrons
   NUPDOWN=      -1.0000    fix difference up-down

 DOS related values:
   EMIN   =  10.00;   EMAX   =-10.00  energy-range for DOS
   EFERMI =   0.00
   ISMEAR =     0;   SIGMA  =   0.05  broadening in eV -4-tet -1-fermi 0-gaus

 Electronic relaxation 2 (details)
   IALGO  =     58    algorithm
   LDIAG  =      T    sub-space diagonalisation (order eigenvalues)
   LSUBROT=      F    optimize rotation matrix (better conditioning)
   TURBO    =      0    0=normal 1=particle mesh
   IRESTART =      0    0=no restart 2=restart with 2 vectors
   NREBOOT  =      0    no. of reboots
   NMIN     =      0    reboot dimension
   EREF     =   0.00    reference energy to select bands
   IMIX   =      4    mixing-type and parameters
     AMIX     =   0.40;   BMIX     =  1.00
     AMIX_MAG =   1.60;   BMIX_MAG =  1.00
     AMIN     =   0.10
     WC   =   100.;   INIMIX=   1;  MIXPRE=   1;  MAXMIX= -45

 Intra band minimization:
   WEIMIN = 0.0000     energy-eigenvalue tresh-hold
   EBREAK =  0.82E-08  absolut break condition
   DEPER  =   0.30     relativ break condition  

   TIME   =   0.40     timestep for ELM

  volume/ion in A,a.u.               =      23.03       155.40
  Fermi-wavevector in a.u.,A,eV,Ry     =   1.097571  2.074108 16.390423  1.204662
  Thomas-Fermi vector in A             =   2.233933
 
 Write flags
   LWAVE        =      F    write WAVECAR
   LDOWNSAMPLE  =      F    k-point downsampling of WAVECAR
   LCHARG       =      F    write CHGCAR
   LVTOT        =      F    write LOCPOT, total local potential
   LVHAR        =      F    write LOCPOT, Hartree potential only
   LELF         =      F    write electronic localiz. function (ELF)
   LORBIT       =      0    0 simple, 1 ext, 2 COOP (PROOUT), +10 PAW based schemes


 Dipole corrections
   LMONO  =      F    monopole corrections only (constant potential shift)
   LDIPOL =      T    correct potential (dipole corrections)
   IDIPOL =      3    1-x, 2-y, 3-z, 4-all directions 
   EPSILON=  1.0000000 bulk dielectric constant

 Exchange correlation treatment:
   GGA     =    MK    GGA type
   LEXCH   =    43    internal setting for exchange type
   LIBXC   =     F    Libxc                    
   VOSKOWN =     0    Vosko Wilk Nusair interpolation
   LHFCALC =     F    Hartree Fock is set to
   LHFONE  =     F    Hartree Fock one center treatment
   AEXX    =    0.0000 exact exchange contribution

 vdW DFT:
   LUSE_VDW   =     T    switch on vdW DFT
   Zab_VDW    =******    correlation parameter
   PARAM1     =0.1234
   PARAM2     =0.7114
   PARAM3     =0.0000
   -- rVV10 --
   BPARAM     = 6.3000
   CPARAM     = 0.0093

 Linear response parameters
   LEPSILON=     F    determine dielectric tensor
   LRPA    =     F    only Hartree local field effects (RPA)
   LNABLA  =     F    use nabla operator in PAW spheres
   LVEL    =     F    velocity operator in full k-point grid
   CSHIFT  =0.1000    complex shift for real part using Kramers Kronig
   OMEGAMAX=  -1.0    maximum frequency
   DEG_THRESHOLD= 0.2000000E-02 threshold for treating states as degnerate
   RTIME   =   -0.100 relaxation time in fs
  (WPLASMAI=    0.000 imaginary part of plasma frequency in eV, 0.658/RTIME)
   DFIELD  = 0.0000000 0.0000000 0.0000000 field for delta impulse in time
 
  Optional k-point grid parameters
   LKPOINTS_OPT  =     F    use optional k-point grid
   KPOINTS_OPT_MODE=     1    mode for optional k-point grid
 
 Orbital magnetization related:
   ORBITALMAG=     F  switch on orbital magnetization
   LCHIMAG   =     F  perturbation theory with respect to B field
   DQ        =  0.001000  dq finite difference perturbation B field
   LLRAUG    =     F  two centre corrections for induced B field



--------------------------------------------------------------------------------------------------------


 Static calculation
 charge density and potential will be updated during run
 non-spin polarized calculation
 Conjugate gradient for all bands (Freysoldt, et al. PRB 79, 241103 (2009))
 preconditioned conjugated gradient                                        
 perform sub-space diagonalisation
    before iterative eigenvector-optimisation
 modified Broyden-mixing scheme, WC =      100.0
 initial mixing is a Kerker type mixing with AMIX =  0.4000 and BMIX =      1.0000
 Hartree-type preconditioning will be used
 using additional bands           75
 reciprocal scheme for non local part
 use partial core corrections
 no Harris-corrections to forces 
 use gradient corrections 
 use of overlap-Matrix (Vanderbilt PP)
 Gauss-broadening in eV      SIGMA  =   0.05


--------------------------------------------------------------------------------------------------------


  energy-cutoff  :      600.00
  volume of cell :     1519.82
      direct lattice vectors                 reciprocal lattice vectors
     8.440984654  0.000000000  0.000000000     0.118469591  0.000000000  0.000000000
     0.000000000  8.440984654  0.000000000     0.000000000  0.118469591  0.000000000
     0.000000000  0.000000000 21.330738491     0.000000000  0.000000000  0.046880702

  length of vectors
     8.440984654  8.440984654 21.330738491     0.118469591  0.118469591  0.046880702


 
 k-points in units of 2pi/SCALE and weight: pymatgen v2020.8.13 with grid density = 
   0.00000000  0.00000000  0.00000000       0.250
   0.05923480  0.00000000  0.00000000       0.500
   0.05923480  0.05923480  0.00000000       0.250
 
 k-points in reciprocal lattice and weights: pymatgen v2020.8.13 with grid density = 
   0.00000000  0.00000000  0.00000000       0.250
   0.50000000  0.00000000  0.00000000       0.500
   0.50000000  0.50000000  0.00000000       0.250
 
 position of ions in fractional coordinates (direct lattice) 
   0.50000000  0.50000000  0.76505380
   0.50000000  0.50000000  0.81881752
   0.00000000  0.75000000  0.35160527
   0.25000000  0.00000000  0.35160527
   0.00000000  0.00000000  0.45053509
   0.25000000  0.75000000  0.45053509
   0.00000000  0.74993927  0.55008324
   0.25006073  0.00000000  0.55008324
   0.00000000  0.00000000  0.64874531
   0.24985833  0.75014167  0.64856955
   0.00000000  0.25000000  0.35160527
   0.25000000  0.50000000  0.35160527
   0.00000000  0.50000000  0.45053509
   0.25000000  0.25000000  0.45053509
   0.00000000  0.25006073  0.55008324
   0.25037838  0.50000000  0.55021952
   0.00000000  0.50000000  0.64861528
   0.24985833  0.24985833  0.64856955
   0.50000000  0.75000000  0.35160527
   0.75000000  0.00000000  0.35160527
   0.50000000  0.00000000  0.45053509
   0.75000000  0.75000000  0.45053509
   0.50000000  0.74962162  0.55021952
   0.74993927  0.00000000  0.55008324
   0.50000000  0.00000000  0.64861528
   0.75014167  0.75014167  0.64856955
   0.50000000  0.25000000  0.35160527
   0.75000000  0.50000000  0.35160527
   0.50000000  0.50000000  0.45053509
   0.75000000  0.25000000  0.45053509
   0.50000000  0.25037838  0.55021952
   0.74962162  0.50000000  0.55021952
   0.50000000  0.50000000  0.65061696
   0.75014167  0.24985833  0.64856955
   0.00000000  0.75000000  0.45053509
   0.25000000  0.00000000  0.45053509
   0.00000000  0.00000000  0.35160527
   0.25000000  0.75000000  0.35160527
   0.00000000  0.75021853  0.65097926
   0.24978147  0.00000000  0.65097926
   0.00000000  0.00000000  0.54980989
   0.24994577  0.75005423  0.54985911
   0.00000000  0.25000000  0.45053509
   0.25000000  0.50000000  0.45053509
   0.00000000  0.50000000  0.35160527
   0.25000000  0.25000000  0.35160527
   0.00000000  0.24978147  0.65097926
   0.24882271  0.50000000  0.65088287
   0.00000000  0.50000000  0.54976267
   0.24994577  0.24994577  0.54985911
   0.50000000  0.75000000  0.45053509
   0.75000000  0.00000000  0.45053509
   0.50000000  0.00000000  0.35160527
   0.75000000  0.75000000  0.35160527
   0.50000000  0.75117729  0.65088287
   0.75021853  0.00000000  0.65097926
   0.50000000  0.00000000  0.54976267
   0.75005423  0.75005423  0.54985911
   0.50000000  0.25000000  0.45053509
   0.75000000  0.50000000  0.45053509
   0.50000000  0.50000000  0.35160527
   0.75000000  0.25000000  0.35160527
   0.50000000  0.24882271  0.65088287
   0.75117729  0.50000000  0.65088287
   0.50000000  0.50000000  0.55023136
   0.75005423  0.24994577  0.54985911
 
 position of ions in cartesian coordinates  (Angst):
   4.22049233  4.22049233 16.31916259
   4.22049233  4.22049233 17.46598241
   0.00000000  6.33073849  7.50000000
   2.11024616  0.00000000  7.50000000
   0.00000000  0.00000000  9.61024616
   2.11024616  6.33073849  9.61024616
   0.00000000  6.33022585 11.73368172
   2.11075880  0.00000000 11.73368172
   0.00000000  0.00000000 13.83821654
   2.10905031  6.33193435 13.83446740
   0.00000000  2.11024616  7.50000000
   2.11024616  4.22049233  7.50000000
   0.00000000  4.22049233  9.61024616
   2.11024616  2.11024616  9.61024616
   0.00000000  2.11075880 11.73368172
   2.11344006  4.22049233 11.73658877
   0.00000000  4.22049233 13.83544293
   2.10905031  2.10905031 13.83446740
   4.22049233  6.33073849  7.50000000
   6.33073849  0.00000000  7.50000000
   4.22049233  0.00000000  9.61024616
   6.33073849  6.33073849  9.61024616
   4.22049233  6.32754460 11.73658877
   6.33022585  0.00000000 11.73368172
   4.22049233  0.00000000 13.83544293
   6.33193435  6.33193435 13.83446740
   4.22049233  2.11024616  7.50000000
   6.33073849  4.22049233  7.50000000
   4.22049233  4.22049233  9.61024616
   6.33073849  2.11024616  9.61024616
   4.22049233  2.11344006 11.73658877
   6.32754460  4.22049233 11.73658877
   4.22049233  4.22049233 13.87814023
   6.33193435  2.10905031 13.83446740
   0.00000000  6.33073849  9.61024616
   2.11024616  0.00000000  9.61024616
   0.00000000  0.00000000  7.50000000
   2.11024616  6.33073849  7.50000000
   0.00000000  6.33258312 13.88586825
   2.10840153  0.00000000 13.88586825
   0.00000000  0.00000000 11.72785099
   2.10978841  6.33119624 11.72890095
   0.00000000  2.11024616  9.61024616
   2.11024616  4.22049233  9.61024616
   0.00000000  4.22049233  7.50000000
   2.11024616  2.11024616  7.50000000
   0.00000000  2.10840153 13.88586825
   2.10030867  4.22049233 13.88381232
   0.00000000  4.22049233 11.72684365
   2.10978841  2.10978841 11.72890095
   4.22049233  6.33073849  9.61024616
   6.33073849  0.00000000  9.61024616
   4.22049233  0.00000000  7.50000000
   6.33073849  6.33073849  7.50000000
   4.22049233  6.34067598 13.88381232
   6.33258312  0.00000000 13.88586825
   4.22049233  0.00000000 11.72684365
   6.33119624  6.33119624 11.72890095
   4.22049233  2.11024616  9.61024616
   6.33073849  4.22049233  9.61024616
   4.22049233  4.22049233  7.50000000
   6.33073849  2.11024616  7.50000000
   4.22049233  2.10030867 13.88381232
   6.34067598  4.22049233 13.88381232
   4.22049233  4.22049233 11.73684118
   6.33119624  2.10978841 11.72890095
 


--------------------------------------------------------------------------------------------------------


 k-point   1 :   0.0000 0.0000 0.0000  plane waves:   50745
 k-point   2 :   0.5000 0.0000 0.0000  plane waves:   50798
 k-point   3 :   0.5000 0.5000 0.0000  plane waves:   50752

 maximum and minimum number of plane-waves per node :     25438    25340

 maximum number of plane-waves:     50798
 maximum index in each direction: 
   IXMAX=   16   IYMAX=   16   IZMAX=   42
   IXMIN=  -17   IYMIN=  -17   IZMIN=  -42


 parallel 3D FFT for wavefunctions:
    minimum data exchange during FFTs selected (reduces bandwidth)
 parallel 3D FFT for charge:
    minimum data exchange during FFTs selected (reduces bandwidth)


 total amount of memory used by VASP MPI-rank0   132524. kBytes
=======================================================================

   base      :      30000. kBytes
   nonl-proj :      58834. kBytes
   fftplans  :      14615. kBytes
   grid      :      21323. kBytes
   one-center:        267. kBytes
   wavefun   :       7485. kBytes
 
     INWAV:  cpu time      0.0000: real time      0.0000
 Broyden mixing: mesh for mixing (old mesh)
   NGX = 33   NGY = 33   NGZ = 85
  (NGX  =140   NGY  =140   NGZ  =360)
  gives a total of  92565 points

 initial charge density was supplied:
 charge density of overlapping atoms calculated
 number of electron     458.0000000 magnetization 
 keeping initial charge density in first step


--------------------------------------------------------------------------------------------------------


 Maximum index for augmentation-charges          608 (set IRDMAX)


--------------------------------------------------------------------------------------------------------


 First call to EWALD:  gamma=   0.154
 Maximum number of real-space cells 4x 4x 2
 Maximum number of reciprocal cells 2x 2x 5

    FEWALD:  cpu time      0.0014: real time      0.0014


--------------------------------------- Iteration      1(   1)  ---------------------------------------


vdW kernel read from vdw_kernel.bindat
  0.0000  0.2424  0.5071  0.7962  1.1119  1.4567  1.8333  2.2446  2.6937  3.1842
  3.7199  4.3049  4.9438  5.6415  6.4036  7.2358  8.1446  9.1372 10.2212 11.4050
 12.6979 14.1099 15.6519 17.3360 19.1751 21.1837 23.3773 25.7729 28.3892 31.2465
 34.3669 37.7748 41.4965 45.5611 50.0000
 
    POTLOK:  cpu time      0.4731: real time      0.4793
    SETDIJ:  cpu time      0.0873: real time      0.0875
    TRIAL :  cpu time      3.2460: real time      3.2589
    CORREC:  cpu time      0.0003: real time      0.0003
    --------------------------------------------
      LOOP:  cpu time      3.8104: real time      3.8314

 eigenvalue-minimisations  :  2280
 total energy-change (2. order) : 0.3522252E+04  (-0.3125621E+05)
 number of electron     458.0000000 magnetization 
 augmentation part      458.0000000 magnetization 

 DIPCOR: dipole corrections for dipol
 direction  3 min pos     1,
 dipolmoment           0.000000      0.000000     -0.000256 electrons x Angstroem
 Tr[quadrupol]     -6318.706890

 energy correction for charged system         0.000000 eV
 dipol+quadrupol energy correction           -0.000000 eV
 added-field ion interaction          0.002074 eV  (added to PSCEN)


 Free energy of the ion-electron system (eV)
  ---------------------------------------------------
  alpha Z        PSCENC =       907.96617802
  Ewald energy   TEWEN  =    137143.22463369
  -Hartree energ DENC   =   -173242.07343078
  -exchange      EXHF   =         0.00000000
  -V(xc)+E(xc)   XCENC  =      1784.04709730
  PAW double counting   =     32339.39176546   -36140.44900584
  entropy T*S    EENTRO =        -0.01447164
  eigenvalues    EBANDS =     -7635.77287167
  atomic energy  EATOM  =     48365.93245855
  ---------------------------------------------------
  free energy    TOTEN  =      3522.25235309 eV

  energy without entropy =     3522.26682473  energy(sigma->0) =     3522.25958891


--------------------------------------------------------------------------------------------------------




--------------------------------------- Iteration      1(   2)  ---------------------------------------


    TRIAL :  cpu time      3.1742: real time      3.1877
    CORREC:  cpu time      0.0001: real time      0.0001
    --------------------------------------------
      LOOP:  cpu time      3.1756: real time      3.1919

 eigenvalue-minimisations  :  2280
 total energy-change (2. order) :-0.3658712E+04  (-0.3646562E+04)
 number of electron     458.0000000 magnetization 
 augmentation part      458.0000000 magnetization 

 DIPCOR: dipole corrections for dipol
 direction  3 min pos     1,
 dipolmoment           0.000000      0.000000     -0.000256 electrons x Angstroem
 Tr[quadrupol]     -6318.706890

 energy correction for charged system         0.000000 eV
 dipol+quadrupol energy correction           -0.000000 eV
 added-field ion interaction          0.002074 eV  (added to PSCEN)


 Free energy of the ion-electron system (eV)
  ---------------------------------------------------
  alpha Z        PSCENC =       907.96617802
  Ewald energy   TEWEN  =    137143.22463369
  -Hartree energ DENC   =   -173242.07343078
  -exchange      EXHF   =         0.00000000
  -V(xc)+E(xc)   XCENC  =      1784.04709730
  PAW double counting   =     32339.39176546   -36140.44900584
  entropy T*S    EENTRO =        -0.00000000
  eigenvalues    EBANDS =    -11294.49928198
  atomic energy  EATOM  =     48365.93245855
  ---------------------------------------------------
  free energy    TOTEN  =      -136.45958558 eV

  energy without entropy =     -136.45958558  energy(sigma->0) =     -136.45958558


--------------------------------------------------------------------------------------------------------




--------------------------------------- Iteration      1(   3)  ---------------------------------------


    TRIAL :  cpu time      4.2985: real time      4.3158
    CORREC:  cpu time      0.0001: real time      0.0001
    --------------------------------------------
      LOOP:  cpu time      4.2988: real time      4.3161

 eigenvalue-minimisations  :  2736
 total energy-change (2. order) :-0.2037504E+03  (-0.2034644E+03)
 number of electron     458.0000000 magnetization 
 augmentation part      458.0000000 magnetization 

 DIPCOR: dipole corrections for dipol
 direction  3 min pos     1,
 dipolmoment           0.000000      0.000000     -0.000256 electrons x Angstroem
 Tr[quadrupol]     -6318.706890

 energy correction for charged system         0.000000 eV
 dipol+quadrupol energy correction           -0.000000 eV
 added-field ion interaction          0.002074 eV  (added to PSCEN)


 Free energy of the ion-electron system (eV)
  ---------------------------------------------------
  alpha Z        PSCENC =       907.96617802
  Ewald energy   TEWEN  =    137143.22463369
  -Hartree energ DENC   =   -173242.07343078
  -exchange      EXHF   =         0.00000000
  -V(xc)+E(xc)   XCENC  =      1784.04709730
  PAW double counting   =     32339.39176546   -36140.44900584
  entropy T*S    EENTRO =        -0.00000000
  eigenvalues    EBANDS =    -11498.24964657
  atomic energy  EATOM  =     48365.93245855
  ---------------------------------------------------
  free energy    TOTEN  =      -340.20995018 eV

  energy without entropy =     -340.20995018  energy(sigma->0) =     -340.20995018


--------------------------------------------------------------------------------------------------------




--------------------------------------- Iteration      1(   4)  ---------------------------------------


    TRIAL :  cpu time      2.3024: real time      2.3129
    CORREC:  cpu time      0.0001: real time      0.0001
    --------------------------------------------
      LOOP:  cpu time      2.3027: real time      2.3132

 eigenvalue-minimisations  :  1824
 total energy-change (2. order) :-0.1675095E+01  (-0.1674983E+01)
 number of electron     458.0000000 magnetization 
 augmentation part      458.0000000 magnetization 

 DIPCOR: dipole corrections for dipol
 direction  3 min pos     1,
 dipolmoment           0.000000      0.000000     -0.000256 electrons x Angstroem
 Tr[quadrupol]     -6318.706890

 energy correction for charged system         0.000000 eV
 dipol+quadrupol energy correction           -0.000000 eV
 added-field ion interaction          0.002074 eV  (added to PSCEN)


 Free energy of the ion-electron system (eV)
  ---------------------------------------------------
  alpha Z        PSCENC =       907.96617802
  Ewald energy   TEWEN  =    137143.22463369
  -Hartree energ DENC   =   -173242.07343078
  -exchange      EXHF   =         0.00000000
  -V(xc)+E(xc)   XCENC  =      1784.04709730
  PAW double counting   =     32339.39176546   -36140.44900584
  entropy T*S    EENTRO =        -0.00000000
  eigenvalues    EBANDS =    -11499.92474151
  atomic energy  EATOM  =     48365.93245855
  ---------------------------------------------------
  free energy    TOTEN  =      -341.88504511 eV

  energy without entropy =     -341.88504511  energy(sigma->0) =     -341.88504511


--------------------------------------------------------------------------------------------------------




--------------------------------------- Iteration      1(   5)  ---------------------------------------


    TRIAL :  cpu time      4.2661: real time      4.2831
    CORREC:  cpu time      0.0001: real time      0.0001
    CHARGE:  cpu time      0.1258: real time      0.1264
    --------------------------------------------
      LOOP:  cpu time      4.3923: real time      4.4098

 eigenvalue-minimisations  :  2736
 total energy-change (2. order) :-0.2424729E-01  (-0.2424545E-01)
 number of electron     457.9999544 magnetization 
 augmentation part      159.5843398 magnetization 

 DIPCOR: dipole corrections for dipol
 direction  3 min pos     1,
 dipolmoment           0.000000      0.000000     -0.000256 electrons x Angstroem
 Tr[quadrupol]     -6318.706890

 energy correction for charged system         0.000000 eV
 dipol+quadrupol energy correction           -0.000000 eV
 added-field ion interaction          0.002074 eV  (added to PSCEN)


 Free energy of the ion-electron system (eV)
  ---------------------------------------------------
  alpha Z        PSCENC =       907.96617802
  Ewald energy   TEWEN  =    137143.22463369
  -Hartree energ DENC   =   -173242.07343078
  -exchange      EXHF   =         0.00000000
  -V(xc)+E(xc)   XCENC  =      1784.04709730
  PAW double counting   =     32339.39176546   -36140.44900584
  entropy T*S    EENTRO =        -0.00000000
  eigenvalues    EBANDS =    -11499.94898880
  atomic energy  EATOM  =     48365.93245855
  ---------------------------------------------------
  free energy    TOTEN  =      -341.90929240 eV

  energy without entropy =     -341.90929240  energy(sigma->0) =     -341.90929240


--------------------------------------------------------------------------------------------------------




--------------------------------------- Iteration      1(   6)  ---------------------------------------


    POTLOK:  cpu time      0.3109: real time      0.3120
    SETDIJ:  cpu time      0.0864: real time      0.0866
    TRIAL :  cpu time      0.9212: real time      0.9254
    CORREC:  cpu time      0.8143: real time      0.8171
    CHARGE:  cpu time      0.1232: real time      0.1237
    --------------------------------------------
      LOOP:  cpu time      2.2564: real time      2.2653

 eigenvalue-minimisations  :     0
 total energy-change (2. order) : 0.1774275E+03  (-0.9880875E+02)
 number of electron     457.9999550 magnetization 
 augmentation part      156.6748876 magnetization 

 DIPCOR: dipole corrections for dipol
 direction  3 min pos     1,
 dipolmoment           0.000000      0.000000      0.108053 electrons x Angstroem
 Tr[quadrupol]     -6351.036885

 energy correction for charged system         0.000000 eV
 dipol+quadrupol energy correction           -0.000695 eV
 added-field ion interaction         -0.874920 eV  (added to PSCEN)


 Free energy of the ion-electron system (eV)
  ---------------------------------------------------
  alpha Z        PSCENC =       904.36374747
  Ewald energy   TEWEN  =    137143.22463369
  -Hartree energ DENC   =   -177105.05657729
  -exchange      EXHF   =         0.00000000
  -V(xc)+E(xc)   XCENC  =      1908.26766889
  PAW double counting   =     36940.35016253   -40688.15355915
  entropy T*S    EENTRO =        -0.00000000
  eigenvalues    EBANDS =     -7633.41033143
  atomic energy  EATOM  =     48365.93245855
  ---------------------------------------------------
  free energy    TOTEN  =      -164.48179674 eV

  energy without entropy =     -164.48179674  energy(sigma->0) =     -164.48179674


--------------------------------------------------------------------------------------------------------




--------------------------------------- Iteration      1(   7)  ---------------------------------------


    POTLOK:  cpu time      0.3093: real time      0.3103
    SETDIJ:  cpu time      0.0854: real time      0.0856
    TRIAL :  cpu time      0.9155: real time      0.9196
    CORREC:  cpu time      0.7947: real time      0.7974
    CHARGE:  cpu time      0.1249: real time      0.1255
    --------------------------------------------
      LOOP:  cpu time      2.2301: real time      2.2388

 eigenvalue-minimisations  :     0
 total energy-change (2. order) :-0.9954381E+02  (-0.6622774E+01)
 number of electron     457.9999555 magnetization 
 augmentation part      154.8857689 magnetization 

 DIPCOR: dipole corrections for dipol
 direction  3 min pos     1,
 dipolmoment           0.000000      0.000000      0.147317 electrons x Angstroem
 Tr[quadrupol]     -6359.029422

 energy correction for charged system         0.000000 eV
 dipol+quadrupol energy correction           -0.001292 eV
 added-field ion interaction         -1.192851 eV  (added to PSCEN)


 Free energy of the ion-electron system (eV)
  ---------------------------------------------------
  alpha Z        PSCENC =       906.58708946
  Ewald energy   TEWEN  =    137143.22463369
  -Hartree energ DENC   =   -175182.62339146
  -exchange      EXHF   =         0.00000000
  -V(xc)+E(xc)   XCENC  =      1838.36851634
  PAW double counting   =     35754.83601975   -39577.27977670
  entropy T*S    EENTRO =        -0.00000000
  eigenvalues    EBANDS =     -9513.07116090
  atomic energy  EATOM  =     48365.93245855
  ---------------------------------------------------
  free energy    TOTEN  =      -264.02561127 eV

  energy without entropy =     -264.02561127  energy(sigma->0) =     -264.02561127


--------------------------------------------------------------------------------------------------------




--------------------------------------- Iteration      1(   8)  ---------------------------------------


    POTLOK:  cpu time      0.3112: real time      0.3122
    SETDIJ:  cpu time      0.0854: real time      0.0856
    TRIAL :  cpu time      0.9066: real time      0.9106
    CORREC:  cpu time      0.7991: real time      0.8019
    CHARGE:  cpu time      0.1245: real time      0.1250
    --------------------------------------------
      LOOP:  cpu time      2.2271: real time      2.2357

 eigenvalue-minimisations  :     0
 total energy-change (2. order) :-0.6637047E+01  (-0.3975951E+01)
 number of electron     457.9999554 magnetization 
 augmentation part      155.0145436 magnetization 

 DIPCOR: dipole corrections for dipol
 direction  3 min pos     1,
 dipolmoment           0.000000      0.000000      0.115979 electrons x Angstroem
 Tr[quadrupol]     -6358.019462

 energy correction for charged system         0.000000 eV
 dipol+quadrupol energy correction           -0.000801 eV
 added-field ion interaction         -0.939098 eV  (added to PSCEN)


 Free energy of the ion-electron system (eV)
  ---------------------------------------------------
  alpha Z        PSCENC =       906.82374446
  Ewald energy   TEWEN  =    137143.22463369
  -Hartree energ DENC   =   -175089.10424805
  -exchange      EXHF   =         0.00000000
  -V(xc)+E(xc)   XCENC  =      1828.86340724
  PAW double counting   =     35673.81144815   -39428.65291879
  entropy T*S    EENTRO =        -0.00000000
  eigenvalues    EBANDS =     -9671.56118360
  atomic energy  EATOM  =     48365.93245855
  ---------------------------------------------------
  free energy    TOTEN  =      -270.66265834 eV

  energy without entropy =     -270.66265834  energy(sigma->0) =     -270.66265834


--------------------------------------------------------------------------------------------------------




--------------------------------------- Iteration      1(   9)  ---------------------------------------


    POTLOK:  cpu time      0.3094: real time      0.3104
    SETDIJ:  cpu time      0.0851: real time      0.0854
    TRIAL :  cpu time      0.9051: real time      0.9092
    CORREC:  cpu time      0.7933: real time      0.7961
    CHARGE:  cpu time      0.1248: real time      0.1253
    --------------------------------------------
      LOOP:  cpu time      2.2183: real time      2.2269

 eigenvalue-minimisations  :     0
 total energy-change (2. order) :-0.3920823E+01  (-0.1819992E+01)
 number of electron     457.9999554 magnetization 
 augmentation part      154.9995934 magnetization 

 DIPCOR: dipole corrections for dipol
 direction  3 min pos     1,
 dipolmoment           0.000000      0.000000      0.145331 electrons x Angstroem
 Tr[quadrupol]     -6351.489987

 energy correction for charged system         0.000000 eV
 dipol+quadrupol energy correction           -0.001257 eV
 added-field ion interaction         -1.176766 eV  (added to PSCEN)


 Free energy of the ion-electron system (eV)
  ---------------------------------------------------
  alpha Z        PSCENC =       907.11584770
  Ewald energy   TEWEN  =    137143.22463369
  -Hartree energ DENC   =   -174998.56588780
  -exchange      EXHF   =         0.00000000
  -V(xc)+E(xc)   XCENC  =      1828.66138381
  PAW double counting   =     35628.08326600   -39416.75197305
  entropy T*S    EENTRO =        -0.00000000
  eigenvalues    EBANDS =     -9732.28321071
  atomic energy  EATOM  =     48365.93245855
  ---------------------------------------------------
  free energy    TOTEN  =      -274.58348180 eV

  energy without entropy =     -274.58348180  energy(sigma->0) =     -274.58348180


--------------------------------------------------------------------------------------------------------




--------------------------------------- Iteration      1(  10)  ---------------------------------------


    POTLOK:  cpu time      0.3147: real time      0.3157
    SETDIJ:  cpu time      0.0861: real time      0.0863
    TRIAL :  cpu time      0.9017: real time      0.9058
    CORREC:  cpu time      0.7940: real time      0.7967
    CHARGE:  cpu time      0.1237: real time      0.1243
    --------------------------------------------
      LOOP:  cpu time      2.2207: real time      2.2293

 eigenvalue-minimisations  :     0
 total energy-change (2. order) :-0.1831245E+01  (-0.6173706E+00)
 number of electron     457.9999555 magnetization 
 augmentation part      154.9340215 magnetization 

 DIPCOR: dipole corrections for dipol
 direction  3 min pos     1,
 dipolmoment           0.000000      0.000000      0.166627 electrons x Angstroem
 Tr[quadrupol]     -6349.734941

 energy correction for charged system         0.000000 eV
 dipol+quadrupol energy correction           -0.001653 eV
 added-field ion interaction         -1.349203 eV  (added to PSCEN)


 Free energy of the ion-electron system (eV)
  ---------------------------------------------------
  alpha Z        PSCENC =       906.81822962
  Ewald energy   TEWEN  =    137143.22463369
  -Hartree energ DENC   =   -174822.05849760
  -exchange      EXHF   =         0.00000000
  -V(xc)+E(xc)   XCENC  =      1826.97695347
  PAW double counting   =     35518.92146739   -39315.04106040
  entropy T*S    EENTRO =        -0.00000000
  eigenvalues    EBANDS =     -9901.18891196
  atomic energy  EATOM  =     48365.93245855
  ---------------------------------------------------
  free energy    TOTEN  =      -276.41472724 eV

  energy without entropy =     -276.41472724  energy(sigma->0) =     -276.41472724


--------------------------------------------------------------------------------------------------------




--------------------------------------- Iteration      1(  11)  ---------------------------------------


    POTLOK:  cpu time      0.3125: real time      0.3135
    SETDIJ:  cpu time      0.0848: real time      0.0851
    TRIAL :  cpu time      0.8999: real time      0.9039
    CORREC:  cpu time      0.7899: real time      0.7927
    CHARGE:  cpu time      0.1256: real time      0.1261
    --------------------------------------------
      LOOP:  cpu time      2.2131: real time      2.2218

 eigenvalue-minimisations  :     0
 total energy-change (2. order) :-0.6195139E+00  (-0.2149264E+00)
 number of electron     457.9999554 magnetization 
 augmentation part      155.0149866 magnetization 

 DIPCOR: dipole corrections for dipol
 direction  3 min pos     1,
 dipolmoment           0.000000      0.000000      0.147070 electrons x Angstroem
 Tr[quadrupol]     -6350.554570

 energy correction for charged system         0.000000 eV
 dipol+quadrupol energy correction           -0.001288 eV
 added-field ion interaction         -1.190848 eV  (added to PSCEN)


 Free energy of the ion-electron system (eV)
  ---------------------------------------------------
  alpha Z        PSCENC =       906.64206654
  Ewald energy   TEWEN  =    137143.22463369
  -Hartree energ DENC   =   -174748.62028381
  -exchange      EXHF   =         0.00000000
  -V(xc)+E(xc)   XCENC  =      1825.94352043
  PAW double counting   =     35454.29518083   -39242.32785393
  entropy T*S    EENTRO =        -0.00000000
  eigenvalues    EBANDS =     -9982.12396345
  atomic energy  EATOM  =     48365.93245855
  ---------------------------------------------------
  free energy    TOTEN  =      -277.03424114 eV

  energy without entropy =     -277.03424114  energy(sigma->0) =     -277.03424114


--------------------------------------------------------------------------------------------------------




--------------------------------------- Iteration      1(  12)  ---------------------------------------


    POTLOK:  cpu time      0.3143: real time      0.3154
    SETDIJ:  cpu time      0.0855: real time      0.0857
    TRIAL :  cpu time      0.9006: real time      0.9046
    CORREC:  cpu time      0.7942: real time      0.7969
    CHARGE:  cpu time      0.1259: real time      0.1264
    --------------------------------------------
      LOOP:  cpu time      2.2211: real time      2.2296

 eigenvalue-minimisations  :     0
 total energy-change (2. order) :-0.2149272E+00  (-0.7632963E-01)
 number of electron     457.9999554 magnetization 
 augmentation part      155.1222377 magnetization 

 DIPCOR: dipole corrections for dipol
 direction  3 min pos     1,
 dipolmoment           0.000000      0.000000      0.134612 electrons x Angstroem
 Tr[quadrupol]     -6351.251665

 energy correction for charged system         0.000000 eV
 dipol+quadrupol energy correction           -0.001079 eV
 added-field ion interaction         -1.089976 eV  (added to PSCEN)


 Free energy of the ion-electron system (eV)
  ---------------------------------------------------
  alpha Z        PSCENC =       906.76746145
  Ewald energy   TEWEN  =    137143.22463369
  -Hartree energ DENC   =   -174768.73229229
  -exchange      EXHF   =         0.00000000
  -V(xc)+E(xc)   XCENC  =      1826.15185097
  PAW double counting   =     35439.91222890   -39225.96391921
  entropy T*S    EENTRO =        -0.00000000
  eigenvalues    EBANDS =     -9964.54159044
  atomic energy  EATOM  =     48365.93245855
  ---------------------------------------------------
  free energy    TOTEN  =      -277.24916838 eV

  energy without entropy =     -277.24916838  energy(sigma->0) =     -277.24916838


--------------------------------------------------------------------------------------------------------




--------------------------------------- Iteration      1(  13)  ---------------------------------------


    POTLOK:  cpu time      0.3129: real time      0.3139
    SETDIJ:  cpu time      0.0851: real time      0.0853
    TRIAL :  cpu time      0.9006: real time      0.9046
    CORREC:  cpu time      0.7933: real time      0.7961
    CHARGE:  cpu time      0.1250: real time      0.1255
    --------------------------------------------
      LOOP:  cpu time      2.2174: real time      2.2260

 eigenvalue-minimisations  :     0
 total energy-change (2. order) :-0.7633549E-01  (-0.3437025E-01)
 number of electron     457.9999554 magnetization 
 augmentation part      155.1717413 magnetization 

 DIPCOR: dipole corrections for dipol
 direction  3 min pos     1,
 dipolmoment           0.000000      0.000000      0.131713 electrons x Angstroem
 Tr[quadrupol]     -6351.660726

 energy correction for charged system         0.000000 eV
 dipol+quadrupol energy correction           -0.001033 eV
 added-field ion interaction         -1.066501 eV  (added to PSCEN)


 Free energy of the ion-electron system (eV)
  ---------------------------------------------------
  alpha Z        PSCENC =       906.87689851
  Ewald energy   TEWEN  =    137143.22463369
  -Hartree energ DENC   =   -174797.56756009
  -exchange      EXHF   =         0.00000000
  -V(xc)+E(xc)   XCENC  =      1826.43066268
  PAW double counting   =     35440.83384423   -39229.62054042
  entropy T*S    EENTRO =        -0.00000000
  eigenvalues    EBANDS =     -9933.43590102
  atomic energy  EATOM  =     48365.93245855
[...]
    253       5.0925      0.00000
    254       5.0980      0.00000
    255       5.0980      0.00000
    256       5.2578      0.00000
    257       5.4324      0.00000
    258       5.4324      0.00000
    259       5.8428      0.00000
    260       5.9199      0.00000
    261       5.9247      0.00000
    262       5.9560      0.00000
    263       6.2209      0.00000
    264       6.3896      0.00000
    265       6.3899      0.00000
    266       6.3987      0.00000
    267       6.4045      0.00000
    268       6.6245      0.00000
    269       6.6682      0.00000
    270       6.6923      0.00000
    271       6.7381      0.00000
    272       7.0864      0.00000
    273       7.5088      0.00000
    274       7.5156      0.00000
    275       7.5243      0.00000
    276       7.7799      0.00000
    277       7.8057      0.00000
    278       7.8102      0.00000
    279       7.8140      0.00000
    280       7.8282      0.00000
    281       7.8458      0.00000
    282       7.8762      0.00000
    283       7.8881      0.00000
    284       7.9130      0.00000
    285       7.9367      0.00000
    286       7.9779      0.00000
    287       8.0902      0.00000
    288       8.3703      0.00000
    289       8.4773      0.00000
    290       8.5751      0.00000
    291       8.6494      0.00000
    292       8.7369      0.00000
    293       8.7488      0.00000
    294       8.8119      0.00000
    295       8.8334      0.00000
    296       8.8481      0.00000
    297       8.9052      0.00000
    298       8.9982      0.00000
    299       9.0086      0.00000
    300       9.2881      0.00000
    301       9.3370      0.00000
    302       9.3767      0.00000
    303       9.4217      0.00000
    304       9.5490      0.00000


--------------------------------------------------------------------------------------------------------


 soft charge-density along one line, spin component           1
         0         1         2         3         4         5         6         7         8         9
 total charge-density along one line
 
 pseudopotential strength for first ion, spin component:           1
 10.244  13.622   0.000   0.025   0.000  -0.000  -0.075  -0.000
 13.622  18.114   0.000   0.032   0.000  -0.000  -0.098  -0.000
  0.000   0.000  -4.418  -0.000  -0.000   8.674   0.000   0.000
  0.025   0.032  -0.000  -4.424  -0.000   0.000   8.659   0.000
  0.000   0.000  -0.000  -0.000  -4.418   0.000   0.000   8.674
 -0.000  -0.000   8.674   0.000   0.000 -19.167  -0.000  -0.000
 -0.075  -0.098   0.000   8.659   0.000  -0.000 -19.087  -0.000
 -0.000  -0.000   0.000   0.000   8.674  -0.000  -0.000 -19.167
 total augmentation occupancy for first ion, spin component:           1
  7.075  -3.202   0.000   2.049   0.000   0.000   0.368   0.000
 -3.202   1.852   0.000  -1.564  -0.000   0.000  -0.221   0.000
  0.000   0.000   0.829   0.000   0.000   0.057   0.000  -0.000
  2.049  -1.564   0.000   2.216   0.000   0.000   0.203   0.000
  0.000  -0.000   0.000   0.000   0.829   0.000  -0.000   0.057
  0.000   0.000   0.057   0.000   0.000   0.004   0.000   0.000
  0.368  -0.221   0.000   0.203  -0.000   0.000   0.028   0.000
  0.000   0.000  -0.000   0.000   0.057   0.000   0.000   0.004


------------------------ aborting loop because EDIFF is reached ----------------------------------------


    FORLOC:  cpu time      0.0031: real time      0.0031
    FORNL :  cpu time      0.3134: real time      0.3150
    STRESS:  cpu time      2.2302: real time      2.2390
    FORCOR:  cpu time      0.3099: real time      0.3110
    OFIELD:  cpu time      0.0001: real time      0.0001

  FORCE on cell =-STRESS in cart. coord.  units (eV):
  Direction    XX          YY          ZZ          XY          YZ          ZX
  --------------------------------------------------------------------------------------
  Alpha Z   907.96410   907.96410   907.96410
  Ewald  157644.15472157644.15472************     0.00000     0.00000    -0.00000
  Hartree168017.84003168017.84003************    -0.00000    -0.00000    -0.00000
  E(xc)   -2499.93385 -2499.93385 -2498.95464     0.00000    -0.00000     0.00000
  Local  ************************335255.34443     0.00000     0.00000    -0.00000
  n-local -2850.68956 -2851.50740 -2880.99324     0.00000    -0.00001     0.00001
  augment  1058.03579  1058.03579  1048.07568    -0.00000     0.00000    -0.00000
  Kinetic  7494.69441  7497.27367  7515.58277     0.00002     0.00001     0.00003
  Fock        0.00000     0.00000     0.00000     0.00000     0.00000     0.00000
  -------------------------------------------------------------------------------------
  Total     -30.07035   -30.07035    -4.87353     0.00000     0.00000     0.00000
  in kB     -31.69983   -31.69983    -5.13762     0.00000     0.00000     0.00000
  external pressure =      -22.85 kB  Pullay stress =        0.00 kB


 VOLUME and BASIS-vectors are now :
 -----------------------------------------------------------------------------
  energy-cutoff  :      600.00
  volume of cell :     1519.82
      direct lattice vectors                 reciprocal lattice vectors
     8.440984654  0.000000000  0.000000000     0.118469591  0.000000000  0.000000000
     0.000000000  8.440984654  0.000000000     0.000000000  0.118469591  0.000000000
     0.000000000  0.000000000 21.330738491     0.000000000  0.000000000  0.046880702

  length of vectors
     8.440984654  8.440984654 21.330738491     0.118469591  0.118469591  0.046880702


 FORCES acting on ions:
    Electron-Ion                     Ewald-Force                    Non-Local-Force
 -----------------------------------------------------------------------------------------------
   0.124E-12 0.512E-12 -.837E+03   0.107E-13 0.622E-14 0.811E+03   -.355E-25 -.659E-22 0.270E+02
   0.440E-12 0.889E-12 -.145E+04   -.888E-14 0.222E-15 0.151E+04   0.197E-22 -.246E-22 -.603E+02
   -.199E-13 -.129E+00 0.208E+04   -.132E-12 0.129E+00 -.207E+04   -.577E-22 -.172E-03 -.679E+01
   0.129E+00 -.229E-12 0.208E+04   -.129E+00 0.537E-13 -.207E+04   0.172E-03 -.125E-21 -.679E+01
   -.730E-13 0.606E-12 0.713E+03   -.151E-10 0.151E-10 -.714E+03   0.840E-23 -.319E-22 0.472E+00
   0.472E+00 -.472E+00 0.714E+03   -.467E+00 0.467E+00 -.715E+03   -.268E-02 0.268E-02 0.496E+00
   -.490E-13 -.284E+01 -.643E+03   0.162E-11 0.283E+01 0.643E+03   0.202E-21 0.177E-01 -.124E+00
   0.284E+01 0.337E-12 -.643E+03   -.283E+01 -.144E-11 0.643E+03   -.177E-01 0.143E-21 -.124E+00
   -.523E-13 -.680E-12 -.200E+04   0.419E-12 -.348E-12 0.200E+04   0.991E-22 -.503E-22 0.571E+01
   0.181E+02 -.181E+02 -.198E+04   -.182E+02 0.182E+02 0.198E+04   0.802E-01 -.802E-01 0.579E+01
   -.263E-13 0.129E+00 0.208E+04   -.356E-12 -.129E+00 -.207E+04   -.587E-22 0.172E-03 -.679E+01
   0.124E+00 0.162E-12 0.208E+04   -.121E+00 0.131E-10 -.207E+04   -.182E-02 0.223E-22 -.680E+01
   -.652E-13 0.131E-11 0.714E+03   -.166E-10 0.391E-13 -.715E+03   0.784E-22 -.145E-22 0.433E+00
   0.472E+00 0.472E+00 0.714E+03   -.467E+00 -.467E+00 -.715E+03   -.268E-02 -.268E-02 0.496E+00
   -.501E-13 0.284E+01 -.643E+03   0.298E-11 -.283E+01 0.643E+03   -.375E-22 -.177E-01 -.124E+00
   0.412E+01 0.204E-12 -.636E+03   -.405E+01 -.995E-13 0.636E+03   -.766E-01 -.473E-22 -.237E+00
   -.445E-13 0.155E-12 -.199E+04   0.142E-13 -.355E-14 0.198E+04   0.118E-22 -.178E-22 0.571E+01
   0.181E+02 0.181E+02 -.198E+04   -.182E+02 -.182E+02 0.198E+04   0.802E-01 0.802E-01 0.579E+01
   0.685E-12 -.124E+00 0.208E+04   -.128E-10 0.121E+00 -.207E+04   -.973E-22 0.182E-02 -.680E+01
   -.129E+00 -.256E-12 0.208E+04   0.129E+00 0.702E-13 -.207E+04   -.172E-03 0.116E-21 -.679E+01
   0.607E-12 -.434E-12 0.714E+03   0.154E-11 0.150E-10 -.715E+03   0.550E-22 -.570E-22 0.433E+00
   -.472E+00 -.472E+00 0.714E+03   0.467E+00 0.467E+00 -.715E+03   0.268E-02 0.268E-02 0.496E+00
   0.601E-12 -.412E+01 -.636E+03   -.153E-11 0.405E+01 0.636E+03   0.796E-22 0.766E-01 -.237E+00
   -.284E+01 0.357E-12 -.643E+03   0.283E+01 -.153E-11 0.643E+03   0.177E-01 -.112E-21 -.124E+00
   0.692E-12 0.384E-12 -.199E+04   0.853E-13 -.249E-13 0.198E+04   -.301E-22 -.187E-22 0.571E+01
   -.181E+02 -.181E+02 -.198E+04   0.182E+02 0.182E+02 0.198E+04   -.802E-01 -.802E-01 0.579E+01
   0.672E-12 0.124E+00 0.208E+04   -.132E-10 -.121E+00 -.207E+04   0.517E-22 -.182E-02 -.680E+01
   -.124E+00 -.265E-11 0.208E+04   0.121E+00 0.131E-10 -.207E+04   0.182E-02 0.214E-22 -.680E+01
   0.621E-12 0.180E-11 0.715E+03   -.249E-13 0.924E-13 -.715E+03   -.965E-22 0.459E-22 0.568E+00
   -.472E+00 0.472E+00 0.714E+03   0.467E+00 -.467E+00 -.715E+03   0.268E-02 -.268E-02 0.496E+00
   0.609E-12 0.412E+01 -.636E+03   0.000E+00 -.405E+01 0.636E+03   0.417E-22 -.766E-01 -.237E+00
   -.412E+01 -.213E-11 -.636E+03   0.405E+01 -.284E-13 0.636E+03   0.766E-01 -.183E-22 -.237E+00
   0.693E-12 0.926E-12 -.191E+04   0.675E-13 -.711E-14 0.191E+04   -.276E-21 0.113E-21 0.381E+01
   -.181E+02 0.181E+02 -.198E+04   0.182E+02 -.182E+02 0.198E+04   -.802E-01 0.802E-01 0.579E+01
   -.330E-13 -.405E+00 0.535E+03   0.950E-13 0.400E+00 -.535E+03   -.103E-21 0.771E-02 -.868E-01
   0.405E+00 0.294E-12 0.535E+03   -.400E+00 -.444E-14 -.535E+03   -.771E-02 0.278E-22 -.868E-01
   -.360E-13 -.296E-12 0.156E+04   0.854E-11 -.844E-11 -.156E+04   -.648E-23 -.163E-22 0.360E+01
   0.940E-01 -.940E-01 0.156E+04   -.931E-01 0.931E-01 -.156E+04   -.109E-02 0.109E-02 0.360E+01
   -.112E-13 -.733E+01 -.152E+04   -.771E-12 0.727E+01 0.153E+04   -.806E-22 0.570E-01 -.514E+01
   0.733E+01 -.404E-13 -.152E+04   -.727E+01 0.856E-12 0.153E+04   -.570E-01 0.139E-21 -.514E+01
   -.223E-13 -.418E-12 -.478E+03   -.711E-14 0.497E-13 0.478E+03   -.144E-22 0.381E-22 0.259E+00
   0.257E+01 -.257E+01 -.473E+03   -.256E+01 0.256E+01 0.473E+03   -.899E-02 0.899E-02 0.325E+00
   -.305E-13 0.405E+00 0.535E+03   0.924E-13 -.400E+00 -.535E+03   0.265E-22 -.771E-02 -.868E-01
   0.379E+00 0.428E-12 0.535E+03   -.406E+00 -.762E-11 -.535E+03   0.357E-01 -.539E-22 -.107E+00
   -.190E-13 0.202E-12 0.156E+04   0.846E-11 -.867E-12 -.156E+04   -.613E-22 -.632E-22 0.360E+01
   0.940E-01 0.940E-01 0.156E+04   -.931E-01 -.931E-01 -.156E+04   -.109E-02 -.109E-02 0.360E+01
   -.166E-13 0.733E+01 -.152E+04   -.782E-12 -.727E+01 0.153E+04   -.746E-22 -.570E-01 -.514E+01
   0.236E+02 -.263E-12 -.149E+04   -.233E+02 0.818E-11 0.150E+04   -.331E+00 -.924E-22 -.513E+01
   -.296E-13 0.180E-12 -.473E+03   -.742E-11 0.711E-14 0.473E+03   0.582E-22 -.642E-23 0.276E+00
   0.257E+01 0.257E+01 -.473E+03   -.256E+01 -.256E+01 0.473E+03   -.899E-02 -.899E-02 0.325E+00
   0.290E-12 -.379E+00 0.535E+03   0.763E-11 0.406E+00 -.535E+03   -.259E-22 -.357E-01 -.107E+00
   -.405E+00 0.327E-12 0.535E+03   0.400E+00 -.568E-13 -.535E+03   0.771E-02 -.803E-23 -.868E-01
   0.327E-12 -.997E-12 0.156E+04   0.918E-12 -.848E-11 -.156E+04   -.125E-21 0.894E-22 0.360E+01
   -.940E-01 -.940E-01 0.156E+04   0.931E-01 0.931E-01 -.156E+04   0.109E-02 0.109E-02 0.360E+01
   0.338E-12 -.236E+02 -.149E+04   -.815E-11 0.233E+02 0.150E+04   -.341E-21 0.331E+00 -.513E+01
   -.733E+01 0.135E-13 -.152E+04   0.727E+01 0.888E-12 0.153E+04   0.570E-01 -.678E-22 -.514E+01
   0.272E-12 -.529E-12 -.473E+03   -.355E-13 0.743E-11 0.473E+03   -.552E-23 0.918E-22 0.276E+00
   -.257E+01 -.257E+01 -.473E+03   0.256E+01 0.256E+01 0.473E+03   0.899E-02 0.899E-02 0.325E+00
   0.294E-12 0.379E+00 0.535E+03   0.769E-11 -.406E+00 -.535E+03   0.340E-22 0.357E-01 -.107E+00
   -.379E+00 -.219E-11 0.535E+03   0.406E+00 -.770E-11 -.535E+03   -.357E-01 -.822E-22 -.107E+00
   0.288E-12 -.108E-12 0.156E+04   0.876E-12 -.888E-12 -.156E+04   -.499E-22 0.997E-22 0.360E+01
   -.940E-01 0.940E-01 0.156E+04   0.931E-01 -.931E-01 -.156E+04   0.109E-02 -.109E-02 0.360E+01
   0.329E-12 0.236E+02 -.149E+04   -.818E-11 -.233E+02 0.150E+04   -.167E-21 -.331E+00 -.513E+01
   -.236E+02 0.135E-11 -.149E+04   0.233E+02 0.818E-11 0.150E+04   0.331E+00 0.301E-21 -.513E+01
   0.244E-12 0.471E-12 -.473E+03   -.782E-13 0.355E-13 0.473E+03   0.557E-23 0.305E-22 -.201E+00
   -.257E+01 0.257E+01 -.473E+03   0.256E+01 -.256E+01 0.473E+03   0.899E-02 -.899E-02 0.325E+00
 -----------------------------------------------------------------------------------------------
   0.168E-10 0.146E-10 0.522E+02   -.959E-13 0.604E-13 0.972E-11   0.208E-16 -.191E-16 -.523E+02
 
 
 POSITION                                       TOTAL-FORCE (eV/Angst)
 -----------------------------------------------------------------------------------
      4.22049      4.22049     16.31916         0.000000      0.000000      0.525592
      4.22049      4.22049     17.46598         0.000000     -0.000000     -0.568295
      0.00000      6.33074      7.50000         0.000000      0.000003      0.314828
      2.11025      0.00000      7.50000        -0.000003      0.000000      0.314828
      0.00000      0.00000      9.61025         0.000000      0.000000      0.037787
      2.11025      6.33074      9.61025         0.001605     -0.001605      0.039789
      0.00000      6.33023     11.73368         0.000000     -0.000565      0.025481
      2.11076      0.00000     11.73368         0.000565     -0.000000      0.025481
      0.00000      0.00000     13.83822         0.000000      0.000000      0.028847
      2.10905      6.33193     13.83447        -0.007997      0.007997      0.020666
      0.00000      2.11025      7.50000         0.000000     -0.000003      0.314828
      2.11025      4.22049      7.50000         0.000458      0.000000      0.315226
      0.00000      4.22049      9.61025         0.000000      0.000000      0.047172
      2.11025      2.11025      9.61025         0.001605      0.001605      0.039789
      0.00000      2.11076     11.73368         0.000000      0.000565      0.025481
      2.11344      4.22049     11.73659        -0.005759     -0.000000      0.030142
      0.00000      4.22049     13.83544         0.000000      0.000000      0.025069
      2.10905      2.10905     13.83447        -0.007997     -0.007997      0.020666
      4.22049      6.33074      7.50000         0.000000     -0.000458      0.315226
      6.33074      0.00000      7.50000         0.000003      0.000000      0.314828
      4.22049      0.00000      9.61025         0.000000     -0.000000      0.047172
      6.33074      6.33074      9.61025        -0.001605     -0.001605      0.039789
      4.22049      6.32754     11.73659         0.000000      0.005759      0.030142
      6.33023      0.00000     11.73368        -0.000565      0.000000      0.025481
      4.22049      0.00000     13.83544         0.000000     -0.000000      0.025069
      6.33193      6.33193     13.83447         0.007997      0.007997      0.020666
      4.22049      2.11025      7.50000         0.000000      0.000458      0.315226
      6.33074      4.22049      7.50000        -0.000458      0.000000      0.315226
      4.22049      4.22049      9.61025         0.000000     -0.000000      0.052377
      6.33074      2.11025      9.61025        -0.001605      0.001605      0.039789
      4.22049      2.11344     11.73659         0.000000     -0.005759      0.030142
      6.32754      4.22049     11.73659         0.005759      0.000000      0.030142
      4.22049      4.22049     13.87814         0.000000      0.000000      0.129228
      6.33193      2.10905     13.83447         0.007997     -0.007997      0.020666
      0.00000      6.33074      9.61025         0.000000      0.002201      0.063675
      2.11025      0.00000      9.61025        -0.002201      0.000000      0.063675
      0.00000      0.00000      7.50000         0.000000      0.000000     -0.402272
      2.11025      6.33074      7.50000        -0.000258      0.000258     -0.402063
      0.00000      6.33258     13.88587         0.000000     -0.001571     -0.097075
      2.10840      0.00000     13.88587         0.001571     -0.000000     -0.097075
      0.00000      0.00000     11.72785         0.000000      0.000000      0.018862
      2.10979      6.33120     11.72890         0.002926     -0.002926      0.012714
      0.00000      2.11025      9.61025         0.000000     -0.002201      0.063675
      2.11025      4.22049      9.61025         0.009213     -0.000000      0.072091
      0.00000      4.22049      7.50000         0.000000      0.000000     -0.402175
      2.11025      2.11025      7.50000        -0.000258     -0.000258     -0.402063
      0.00000      2.10840     13.88587         0.000000      0.001571     -0.097075
      2.10031      4.22049     13.88381        -0.004034      0.000000     -0.094377
      0.00000      4.22049     11.72684         0.000000     -0.000000      0.015111
      2.10979      2.10979     11.72890         0.002926      0.002926      0.012714
      4.22049      6.33074      9.61025         0.000000     -0.009213      0.072091
      6.33074      0.00000      9.61025         0.002201     -0.000000      0.063675
      4.22049      0.00000      7.50000         0.000000      0.000000     -0.402175
      6.33074      6.33074      7.50000         0.000258      0.000258     -0.402063
      4.22049      6.34068     13.88381         0.000000      0.004034     -0.094377
      6.33258      0.00000     13.88587        -0.001571     -0.000000     -0.097075
      4.22049      0.00000     11.72684         0.000000     -0.000000      0.015111
      6.33120      6.33120     11.72890        -0.002926     -0.002926      0.012714
      4.22049      2.11025      9.61025         0.000000      0.009213      0.072091
      6.33074      4.22049      9.61025        -0.009213      0.000000      0.072091
      4.22049      4.22049      7.50000         0.000000      0.000000     -0.402647
      6.33074      2.11025      7.50000         0.000258     -0.000258     -0.402063
      4.22049      2.10031     13.88381         0.000000     -0.004034     -0.094377
      6.34068      4.22049     13.88381         0.004034      0.000000     -0.094377
      4.22049      4.22049     11.73684         0.000000     -0.000000      0.005783
      6.33120      2.10979     11.72890        -0.002926      0.002926      0.012714
 -----------------------------------------------------------------------------------
    total drift:                                0.000000      0.000000     -0.020625


--------------------------------------------------------------------------------------------------------



  FREE ENERGIE OF THE ION-ELECTRON SYSTEM (eV)
  ---------------------------------------------------
  free  energy   TOTEN  =      -277.38721798 eV

  energy  without entropy=     -277.38721798  energy(sigma->0) =     -277.38721798
 


--------------------------------------------------------------------------------------------------------


    POTLOK:  cpu time      0.3970: real time      0.3982


--------------------------------------------------------------------------------------------------------


     LOOP+:  cpu time     61.5253: real time     61.7805
    4ORBIT:  cpu time      0.0000: real time      0.0000

 total amount of memory used by VASP MPI-rank0   132524. kBytes
=======================================================================

   base      :      30000. kBytes
   nonl-proj :      58834. kBytes
   fftplans  :      14615. kBytes
   grid      :      21323. kBytes
   one-center:        267. kBytes
   wavefun   :       7485. kBytes
 
  
  
 General timing and accounting informations for this job:
 ========================================================
  
                  Total CPU time used (sec):       64.663
                            User time (sec):       63.872
                          System time (sec):        0.791
                         Elapsed time (sec):       65.598
  
                   Maximum memory used (kb):      501728.
                   Average memory used (kb):          N/A
  
                          Minor page faults:       106663
                          Major page faults:          112
                 Voluntary context switches:         1808
