 vasp.6.3.0 20Jan22 (build Apr  1 2022 16:44:48) complex
 executed on        HPECrayEX_GCC date 2022.09.24  12:35:25
 running  768 mpi-ranks, with    1 threads/rank
 distrk:  each k-point on  384 cores,    2 groups
 distr:  one band on NCORE=   4 cores,   96 groups


--------------------------------------------------------------------------------------------------------


 INCAR:
   SYSTEM = MgO-rocksalt
   ISMEAR = 0
   SIGMA = 0.05
   EDIFF = 1E-7
   ALGO = ALL
   ISTART = 0
   IBRION = 2
   NSW = 1000
   ISYM = 2
   ISIF = 3
   EDIFFG = -0.005
   GGA = RE
   LUSE_VDW = .TRUE.
   AGGAC = 0.0
   ENCUT = 600
   PREC = Normal
   LASPH = .TRUE.
   LREAL = .FALSE.
   ISPIN = 1
   NELM = 200
   NELMIN = 8
   NCORE = 4
   KPAR = 2
   LWAVE = .FALSE.
   LCHARG = .FALSE.

 POTCAR:    PAW_PBE Mg_pv 13Apr2007
 POTCAR:    PAW_PBE O 08Apr2002
 -----------------------------------------------------------------------------
|                                                                             |
|               ----> ADVICE to this user running VASP <----                  |
|                                                                             |
|     You have switched on vdW-DFT.                                           |
|     This routine was written and supplied by Jiri Klimes. We recommend      |
|     that you carefully read and cite the following publications:            |
|       J. Klimes, D.R. Bowler, A. Michelides                                 |
|          J. Phys.: Cond Matt. 22 022201 (2010)                              |
|       J. Klimes, D.R. Bowler, A. Michelides                                 |
|          Phys. Rev. B. 83, 195131 (2011)                                    |
|     and references therein.                                                 |
|                                                                             |
 -----------------------------------------------------------------------------

 POTCAR:    PAW_PBE Mg_pv 13Apr2007
   SHA256 =  f474ac0dd33840b9ae76c01d57fea79fdf77cdfbb07d5ade72c65f83c709b62b Mg_pv/POTCAR
   COPYR  = (c) Copyright 13Apr2007 Georg Kresse
   COPYR  = This file is part of the software VASP. Any use, copying, and all other rights are regul
   COPYR  = If you do not have a valid VASP license, you may not use, copy or distribute this file.
   VRHFIN =Mg: p6s2
   LEXCH  = PE
   EATOM  =  1056.7344 eV,   77.6678 Ry

   TITEL  = PAW_PBE Mg_pv 13Apr2007
   LULTRA =        F    use ultrasoft PP ?
   IUNSCR =        1    unscreen: 0-lin 1-nonlin 2-no
   RPACOR =    1.500    partial core radius
   POMASS =   24.305; ZVAL   =    8.000    mass and valenz
   RCORE  =    2.000    outmost cutoff radius
   RWIGS  =    2.000; RWIGS  =    1.058    wigner-seitz radius (au A)
   ENMAX  =  403.929; ENMIN  =  302.947 eV
   RCLOC  =    1.506    cutoff for local pot
   LCOR   =        T    correct aug charges
   LPAW   =        T    paw PP
   EAUG   =  758.780
   DEXC   =    0.000
   RMAX   =    2.045    core radius for proj-oper
   RAUG   =    1.300    factor for augmentation sphere
   RDEP   =    2.025    radius for radial grids
   RDEPT  =    1.557    core radius for aug-charge

   Atomic configuration
    5 entries
     n  l   j            E        occ.
     1  0  0.50     -1259.6230   2.0000
     2  0  0.50       -79.8442   2.0000
     2  1  1.50       -46.6121   6.0000
     3  0  0.50        -4.7055   2.0000
     3  2  1.50        -1.3606   0.0000
   Description
     l       E           TYP  RCUT    TYP  RCUT
     1    -46.6121073     23  1.600
     1      2.7211652     23  1.600
     0     -4.7054661     23  2.000
     0     61.2262170     23  2.000
     2     -1.3605826     23  2.000
  local pseudopotential read in
  partial core-charges read in
  partial kinetic energy density read in
  atomic valenz-charges read in
  non local Contribution for L=           1  read in
    real space projection operators read in
  non local Contribution for L=           1  read in
    real space projection operators read in
  non local Contribution for L=           0  read in
    real space projection operators read in
  non local Contribution for L=           0  read in
    real space projection operators read in
  non local Contribution for L=           2  read in
    real space projection operators read in
    PAW grid and wavefunctions read in

   number of l-projection  operators is LMAX  =           5
   number of lm-projection operators is LMMAX =          13

 POTCAR:    PAW_PBE O 08Apr2002
   SHA256 =  818f92134a0a090dccd8ba1447fa70422a3b330e708bb4f08108d8ae51209ddf O/POTCAR
   COPYR  = (c) Copyright 08Apr2002 Georg Kresse
   COPYR  = This file is part of the software VASP. Any use, copying, and all other rights are regul
   COPYR  = If you do not have a valid VASP license, you may not use, copy or distribute this file.
   VRHFIN =O: s2p4
   LEXCH  = PE
   EATOM  =   432.3788 eV,   31.7789 Ry

   TITEL  = PAW_PBE O 08Apr2002
   LULTRA =        F    use ultrasoft PP ?
   IUNSCR =        1    unscreen: 0-lin 1-nonlin 2-no
   RPACOR =    1.200    partial core radius
   POMASS =   16.000; ZVAL   =    6.000    mass and valenz
   RCORE  =    1.520    outmost cutoff radius
   RWIGS  =    1.550; RWIGS  =    0.820    wigner-seitz radius (au A)
   ENMAX  =  400.000; ENMIN  =  300.000 eV
   ICORE  =        2    local potential
   LCOR   =        T    correct aug charges
   LPAW   =        T    paw PP
   EAUG   =  605.392
   DEXC   =    0.000
   RMAX   =    1.553    core radius for proj-oper
   RAUG   =    1.300    factor for augmentation sphere
   RDEP   =    1.550    radius for radial grids
   RDEPT  =    1.329    core radius for aug-charge

   Atomic configuration
    4 entries
     n  l   j            E        occ.
     1  0  0.50      -514.6923   2.0000
     2  0  0.50       -23.9615   2.0000
     2  1  0.50        -9.0305   4.0000
     3  2  1.50        -9.5241   0.0000
   Description
     l       E           TYP  RCUT    TYP  RCUT
     0    -23.9615318     23  1.200
     0     -9.5240782     23  1.200
     1     -9.0304911     23  1.520
     1      8.1634956     23  1.520
     2     -9.5240782      7  1.500
  local pseudopotential read in
  partial core-charges read in
  partial kinetic energy density read in
  kinetic energy density of atom read in
  atomic valenz-charges read in
  non local Contribution for L=           0  read in
    real space projection operators read in
  non local Contribution for L=           0  read in
    real space projection operators read in
  non local Contribution for L=           1  read in
    real space projection operators read in
  non local Contribution for L=           1  read in
    real space projection operators read in
    PAW grid and wavefunctions read in

   number of l-projection  operators is LMAX  =           4
   number of lm-projection operators is LMMAX =           8

 -----------------------------------------------------------------------------
|                                                                             |
|               ----> ADVICE to this user running VASP <----                  |
|                                                                             |
|     You enforced a specific xc type in the INCAR file but a different       |
|     type was found in the POTCAR file.                                      |
|     I HOPE YOU KNOW WHAT YOU ARE DOING!                                     |
|                                                                             |
 -----------------------------------------------------------------------------

  PAW_PBE Mg_pv 13Apr2007               :
 energy of atom  1       EATOM=-1056.7344
 kinetic energy error for atom=    0.0221 (will be added to EATOM!!)
  PAW_PBE O 08Apr2002                   :
 energy of atom  2       EATOM= -432.3788
 kinetic energy error for atom=    0.0168 (will be added to EATOM!!)


 POSCAR: Mg4 O4
  positions in direct lattice
  velocities in cartesian coordinates
 exchange correlation table for  LEXCH =       40
   RHO(1)=    0.500       N(1)  =     2000
   RHO(2)=  100.500       N(2)  =     4000



--------------------------------------------------------------------------------------------------------


 ion  position               nearest neighbor table
   1  0.000  0.000  0.000-   5 2.14   7 2.14   8 2.14   7 2.14   8 2.14   5 2.14
   2  0.000  0.500  0.500-   6 2.14   7 2.14   8 2.14   8 2.14   7 2.14   6 2.14
   3  0.500  0.000  0.500-   5 2.14   6 2.14   7 2.14   5 2.14   6 2.14   7 2.14
   4  0.500  0.500  0.000-   5 2.14   6 2.14   8 2.14   6 2.14   5 2.14   8 2.14
   5  0.500  0.000  0.000-   1 2.14   3 2.14   4 2.14   3 2.14   4 2.14   1 2.14
   6  0.500  0.500  0.500-   2 2.14   3 2.14   4 2.14   4 2.14   3 2.14   2 2.14
   7  0.000  0.000  0.500-   1 2.14   2 2.14   3 2.14   1 2.14   2 2.14   3 2.14
   8  0.000  0.500  0.000-   1 2.14   2 2.14   4 2.14   2 2.14   1 2.14   4 2.14

  LATTYP: Found a simple cubic cell.
 ALAT       =     4.2730568129

  Lattice vectors:

 A1 = (   4.2730568129,  -0.0000000000,   0.0000000000)
 A2 = (  -0.0000000000,   4.2730568129,   0.0000000000)
 A3 = (   0.0000000000,  -0.0000000000,   4.2730568129)


Analysis of symmetry for initial positions (statically):
=====================================================================
 Subroutine PRICEL returns following result:

  LATTYP: Found a face centered cubic cell.
 ALAT       =     4.2730568129

  Lattice vectors:

 A1 = (   2.1365284064,  -2.1365284064,   0.0000000000)
 A2 = (   2.1365284064,   0.0000000000,   2.1365284064)
 A3 = (   0.0000000000,  -2.1365284064,   2.1365284064)

   4 primitive cells build up your supercell.


 Routine SETGRP: Setting up the symmetry group for a
 simple cubic supercell.


 Subroutine GETGRP returns: Found 48 space group operations
 (whereof 48 operations were pure point group operations)
 out of a pool of 48 trial point group operations.


The static configuration has the point symmetry O_h .


Analysis of symmetry for dynamics (positions and initial velocities):
=====================================================================
 Subroutine PRICEL returns following result:

  LATTYP: Found a face centered cubic cell.
 ALAT       =     4.2730568129

  Lattice vectors:

 A1 = (   2.1365284064,  -2.1365284064,   0.0000000000)
 A2 = (   2.1365284064,   0.0000000000,   2.1365284064)
 A3 = (   0.0000000000,  -2.1365284064,   2.1365284064)

   4 primitive cells build up your supercell.


 Routine SETGRP: Setting up the symmetry group for a
 simple cubic supercell.


 Subroutine GETGRP returns: Found 48 space group operations
 (whereof 48 operations were pure point group operations)
 out of a pool of 48 trial point group operations.


The dynamic configuration has the point symmetry O_h .


 Subroutine INISYM returns: Found 48 space group operations
 (whereof 48 operations are pure point group operations),
 and found     4 'primitive' translations


----------------------------------------------------------------------------------------

                                     Primitive cell

  volume of cell :      19.5055

  direct lattice vectors                    reciprocal lattice vectors
     2.136528406 -2.136528406  0.000000000     0.234024504 -0.234024504 -0.234024504
     2.136528406  0.000000000  2.136528406     0.234024504  0.234024504  0.234024504
     0.000000000 -2.136528406  2.136528406    -0.234024504 -0.234024504  0.234024504

  length of vectors
     3.021507449  3.021507449  3.021507449     0.405342331  0.405342331  0.405342331

  position of ions in fractional coordinates (direct lattice)
     0.000000000  0.000000000  0.000000000
     0.500000000  0.500000000  0.500000000

  ion indices of the primitive-cell ions
   primitive index   ion index
                 1           1
                 2           5

----------------------------------------------------------------------------------------



 KPOINTS: pymatgen v2020.8.13 with grid density =

Automatic generation of k-mesh.
 Grid dimensions read from file:
 generate k-points for:    8    8    8

 Generating k-lattice:

  Cartesian coordinates                     Fractional coordinates (reciprocal lattice)
     0.029253063  0.000000000  0.000000000     0.125000000  0.000000000  0.000000000
     0.000000000  0.029253063  0.000000000     0.000000000  0.125000000  0.000000000
    -0.000000000 -0.000000000  0.029253063     0.000000000  0.000000000  0.125000000

  Length of vectors
     0.029253063  0.029253063  0.029253063

  Shift w.r.t. Gamma in fractional coordinates (k-lattice)
     0.000000000  0.000000000  0.000000000


 Subroutine IBZKPT returns following result:
 ===========================================

 Found     35 irreducible k-points:

 Following reciprocal coordinates:
            Coordinates               Weight
  0.000000  0.000000  0.000000      1.000000
  0.125000  0.000000  0.000000      6.000000
  0.250000  0.000000  0.000000      6.000000
  0.375000  0.000000  0.000000      6.000000
  0.500000  0.000000  0.000000      3.000000
  0.125000  0.125000  0.000000     12.000000
  0.250000  0.125000  0.000000     24.000000
  0.375000  0.125000  0.000000     24.000000
  0.500000  0.125000  0.000000     12.000000
  0.250000  0.250000  0.000000     12.000000
  0.375000  0.250000  0.000000     24.000000
  0.500000  0.250000  0.000000     12.000000
  0.375000  0.375000  0.000000     12.000000
  0.500000  0.375000  0.000000     12.000000
  0.500000  0.500000  0.000000      3.000000
  0.125000  0.125000  0.125000      8.000000
  0.250000  0.125000  0.125000     24.000000
  0.375000  0.125000  0.125000     24.000000
  0.500000  0.125000  0.125000     12.000000
  0.250000  0.250000  0.125000     24.000000
  0.375000  0.250000  0.125000     48.000000
  0.500000  0.250000  0.125000     24.000000
  0.375000  0.375000  0.125000     24.000000
  0.500000  0.375000  0.125000     24.000000
  0.500000  0.500000  0.125000      6.000000
  0.250000  0.250000  0.250000      8.000000
  0.375000  0.250000  0.250000     24.000000
  0.500000  0.250000  0.250000     12.000000
  0.375000  0.375000  0.250000     24.000000
  0.500000  0.375000  0.250000     24.000000
  0.500000  0.500000  0.250000      6.000000
  0.375000  0.375000  0.375000      8.000000
  0.500000  0.375000  0.375000     12.000000
  0.500000  0.500000  0.375000      6.000000
  0.500000  0.500000  0.500000      1.000000

 Following cartesian coordinates:
            Coordinates               Weight
  0.000000  0.000000  0.000000      1.000000
  0.029253  0.000000  0.000000      6.000000
  0.058506  0.000000  0.000000      6.000000
  0.087759  0.000000  0.000000      6.000000
  0.117012  0.000000  0.000000      3.000000
  0.029253  0.029253  0.000000     12.000000
  0.058506  0.029253  0.000000     24.000000
  0.087759  0.029253  0.000000     24.000000
  0.117012  0.029253  0.000000     12.000000
  0.058506  0.058506  0.000000     12.000000
  0.087759  0.058506  0.000000     24.000000
  0.117012  0.058506  0.000000     12.000000
  0.087759  0.087759  0.000000     12.000000
  0.117012  0.087759  0.000000     12.000000
  0.117012  0.117012  0.000000      3.000000
  0.029253  0.029253  0.029253      8.000000
  0.058506  0.029253  0.029253     24.000000
  0.087759  0.029253  0.029253     24.000000
  0.117012  0.029253  0.029253     12.000000
  0.058506  0.058506  0.029253     24.000000
  0.087759  0.058506  0.029253     48.000000
  0.117012  0.058506  0.029253     24.000000
  0.087759  0.087759  0.029253     24.000000
  0.117012  0.087759  0.029253     24.000000
  0.117012  0.117012  0.029253      6.000000
  0.058506  0.058506  0.058506      8.000000
  0.087759  0.058506  0.058506     24.000000
  0.117012  0.058506  0.058506     12.000000
  0.087759  0.087759  0.058506     24.000000
  0.117012  0.087759  0.058506     24.000000
  0.117012  0.117012  0.058506      6.000000
  0.087759  0.087759  0.087759      8.000000
  0.117012  0.087759  0.087759     12.000000
  0.117012  0.117012  0.087759      6.000000
  0.117012  0.117012  0.117012      1.000000



--------------------------------------------------------------------------------------------------------




 Dimension of arrays:
   k-points           NKPTS =     35   k-points in BZ     NKDIM =     35   number of bands    NBANDS=     96
   number of dos      NEDOS =    301   number of ions     NIONS =      8
   non local maximal  LDIM  =      5   non local SUM 2l+1 LMDIM =     13
   total plane-waves  NPLWV =  21952
   max r-space proj   IRMAX =      1   max aug-charges    IRDMAX=   5744
   dimension x,y,z NGX =    28 NGY =   28 NGZ =   28
   dimension x,y,z NGXF=    56 NGYF=   56 NGZF=   56
   support grid    NGXF=    56 NGYF=   56 NGZF=   56
   ions per type =               4   4
   NGX,Y,Z   is equivalent  to a cutoff of  10.89, 10.89, 10.89 a.u.
   NGXF,Y,Z  is equivalent  to a cutoff of  21.79, 21.79, 21.79 a.u.

 SYSTEM =  MgO-rocksalt
 POSCAR =  Mg4 O4

 Startparameter for this run:
   NWRITE =      2    write-flag & timer
   PREC   = normal    normal or accurate (medium, high low for compatibility)
   ISTART =      0    job   : 0-new  1-cont  2-samecut
   ICHARG =      2    charge: 1-file 2-atom 10-const
   ISPIN  =      1    spin polarized calculation?
   LNONCOLLINEAR =      F non collinear calculations
   LSORBIT =      F    spin-orbit coupling
   INIWAV =      1    electr: 0-lowe 1-rand  2-diag
   LASPH  =      T    aspherical Exc in radial PAW
 Electronic Relaxation 1
   ENCUT  =  600.0 eV  44.10 Ry    6.64 a.u.   8.53  8.53  8.53*2*pi/ulx,y,z
   ENINI  =  600.0     initial cutoff
   ENAUG  =  758.8 eV  augmentation charge cutoff
   NELM   =    200;   NELMIN=  8; NELMDL= -5     # of ELM steps
   EDIFF  = 0.1E-06   stopping-criterion for ELM
   LREAL  =      F    real-space projection
   NLSPLINE    = F    spline interpolate recip. space projectors
   LCOMPAT=      F    compatible to vasp.4.4
   GGA_COMPAT  = T    GGA compatible to vasp.4.4-vasp.4.6
   LMAXPAW     = -100 max onsite density
   LMAXMIX     =    2 max onsite mixed and CHGCAR
   VOSKOWN=      0    Vosko Wilk Nusair interpolation
   ROPT   =    0.00000   0.00000
 Ionic relaxation
   EDIFFG = -.5E-02   stopping-criterion for IOM
   NSW    =   1000    number of steps for IOM
   NBLOCK =      1;   KBLOCK =   1000    inner block; outer block
   IBRION =      2    ionic relax: 0-MD 1-quasi-New 2-CG
   NFREE  =      1    steps in history (QN), initial steepest desc. (CG)
   ISIF   =      3    stress and relaxation
   IWAVPR =     11    prediction:  0-non 1-charg 2-wave 3-comb
   ISYM   =      2    0-nonsym 1-usesym 2-fastsym
   LCORR  =      T    Harris-Foulkes like correction to forces

   POTIM  = 0.5000    time-step for ionic-motion
   TEIN   =    0.0    initial temperature
   TEBEG  =    0.0;   TEEND  =   0.0 temperature during run
   SMASS  =  -3.00    Nose mass-parameter (am)
   estimated Nose-frequenzy (Omega)   =  0.10E-29 period in steps = 0.13E+47 mass=  -0.417E-27a.u.
   SCALEE = 1.0000    scale energy and forces
   NPACO  =    256;   APACO  = 10.0  distance and # of slots for P.C.
   PSTRESS=    0.0 pullay stress

  Mass of Ions in am
   POMASS =  24.30 16.00
  Ionic Valenz
   ZVAL   =   8.00  6.00
  Atomic Wigner-Seitz radii
   RWIGS  =  -1.00 -1.00
  virtual crystal weights
   VCA    =   1.00  1.00
   NELECT =      56.0000    total number of electrons
   NUPDOWN=      -1.0000    fix difference up-down

 DOS related values:
   EMIN   =  10.00;   EMAX   =-10.00  energy-range for DOS
   EFERMI =   0.00
   ISMEAR =     0;   SIGMA  =   0.05  broadening in eV -4-tet -1-fermi 0-gaus

 Electronic relaxation 2 (details)
   IALGO  =     58    algorithm
   LDIAG  =      T    sub-space diagonalisation (order eigenvalues)
   LSUBROT=      F    optimize rotation matrix (better conditioning)
   TURBO    =      0    0=normal 1=particle mesh
   IRESTART =      0    0=no restart 2=restart with 2 vectors
   NREBOOT  =      0    no. of reboots
   NMIN     =      0    reboot dimension
   EREF     =   0.00    reference energy to select bands
   IMIX   =      4    mixing-type and parameters
     AMIX     =   0.40;   BMIX     =  1.00
     AMIX_MAG =   1.60;   BMIX_MAG =  1.00
     AMIN     =   0.10
     WC   =   100.;   INIMIX=   1;  MIXPRE=   1;  MAXMIX= -45

 Intra band minimization:
   WEIMIN = 0.0010     energy-eigenvalue tresh-hold
   EBREAK =  0.26E-09  absolut break condition
   DEPER  =   0.30     relativ break condition

   TIME   =   0.40     timestep for ELM

  volume/ion in A,a.u.               =       9.75        65.81
  Fermi-wavevector in a.u.,A,eV,Ry     =   1.465769  2.769902 29.231825  2.148479
  Thomas-Fermi vector in A             =   2.581586

 Write flags
   LWAVE        =      F    write WAVECAR
   LDOWNSAMPLE  =      F    k-point downsampling of WAVECAR
   LCHARG       =      F    write CHGCAR
   LVTOT        =      F    write LOCPOT, total local potential
   LVHAR        =      F    write LOCPOT, Hartree potential only
   LELF         =      F    write electronic localiz. function (ELF)
   LORBIT       =      0    0 simple, 1 ext, 2 COOP (PROOUT), +10 PAW based schemes


 Dipole corrections
   LMONO  =      F    monopole corrections only (constant potential shift)
   LDIPOL =      F    correct potential (dipole corrections)
   IDIPOL =      0    1-x, 2-y, 3-z, 4-all directions
   EPSILON=  1.0000000 bulk dielectric constant

 Exchange correlation treatment:
   GGA     =    RE    GGA type
   LEXCH   =    40    internal setting for exchange type
   LIBXC   =     F    Libxc
   VOSKOWN =     0    Vosko Wilk Nusair interpolation
   LHFCALC =     F    Hartree Fock is set to
   LHFONE  =     F    Hartree Fock one center treatment
   AEXX    =    0.0000 exact exchange contribution

 vdW DFT:
   LUSE_VDW   =     T    switch on vdW DFT
   Zab_VDW    =-.8491    correlation parameter
   PARAM1     =0.1234
   PARAM2     =1.0000
   PARAM3     =0.0000
   -- rVV10 --
   BPARAM     = 6.3000
   CPARAM     = 0.0093

 Linear response parameters
   LEPSILON=     F    determine dielectric tensor
   LRPA    =     F    only Hartree local field effects (RPA)
   LNABLA  =     F    use nabla operator in PAW spheres
   LVEL    =     F    velocity operator in full k-point grid
   CSHIFT  =0.1000    complex shift for real part using Kramers Kronig
   OMEGAMAX=  -1.0    maximum frequency
   DEG_THRESHOLD= 0.2000000E-02 threshold for treating states as degnerate
   RTIME   =   -0.100 relaxation time in fs
  (WPLASMAI=    0.000 imaginary part of plasma frequency in eV, 0.658/RTIME)
   DFIELD  = 0.0000000 0.0000000 0.0000000 field for delta impulse in time

  Optional k-point grid parameters
   LKPOINTS_OPT  =     F    use optional k-point grid
   KPOINTS_OPT_MODE=     1    mode for optional k-point grid

 Orbital magnetization related:
   ORBITALMAG=     F  switch on orbital magnetization
   LCHIMAG   =     F  perturbation theory with respect to B field
   DQ        =  0.001000  dq finite difference perturbation B field
   LLRAUG    =     F  two centre corrections for induced B field



--------------------------------------------------------------------------------------------------------


 conjugate gradient relaxation of ions
 charge density and potential will be updated during run
 non-spin polarized calculation
 Conjugate gradient for all bands (Freysoldt, et al. PRB 79, 241103 (2009))
 preconditioned conjugated gradient
 perform sub-space diagonalisation
    before iterative eigenvector-optimisation
 modified Broyden-mixing scheme, WC =      100.0
 initial mixing is a Kerker type mixing with AMIX =  0.4000 and BMIX =      1.0000
 Hartree-type preconditioning will be used
 using additional bands           68
 reciprocal scheme for non local part
 use partial core corrections
 no Harris-corrections to forces
 use gradient corrections
 use of overlap-Matrix (Vanderbilt PP)
 Gauss-broadening in eV      SIGMA  =   0.05


--------------------------------------------------------------------------------------------------------


  energy-cutoff  :      600.00
  volume of cell :       78.02
      direct lattice vectors                 reciprocal lattice vectors
     4.273056813 -0.000000000  0.000000000     0.234024504  0.000000000  0.000000000
    -0.000000000  4.273056813  0.000000000     0.000000000  0.234024504  0.000000000
     0.000000000 -0.000000000  4.273056813    -0.000000000 -0.000000000  0.234024504

  length of vectors
     4.273056813  4.273056813  4.273056813     0.234024504  0.234024504  0.234024504



 k-points in units of 2pi/SCALE and weight: pymatgen v2020.8.13 with grid density =
   0.00000000  0.00000000  0.00000000       0.002
   0.02925306  0.00000000  0.00000000       0.012
   0.05850613  0.00000000  0.00000000       0.012
   0.08775919  0.00000000  0.00000000       0.012
   0.11701225  0.00000000  0.00000000       0.006
   0.02925306  0.02925306  0.00000000       0.023
   0.05850613  0.02925306  0.00000000       0.047
   0.08775919  0.02925306  0.00000000       0.047
   0.11701225  0.02925306  0.00000000       0.023
   0.05850613  0.05850613  0.00000000       0.023
   0.08775919  0.05850613  0.00000000       0.047
   0.11701225  0.05850613  0.00000000       0.023
   0.08775919  0.08775919  0.00000000       0.023
   0.11701225  0.08775919  0.00000000       0.023
   0.11701225  0.11701225  0.00000000       0.006
   0.02925306  0.02925306  0.02925306       0.016
   0.05850613  0.02925306  0.02925306       0.047
   0.08775919  0.02925306  0.02925306       0.047
   0.11701225  0.02925306  0.02925306       0.023
   0.05850613  0.05850613  0.02925306       0.047
   0.08775919  0.05850613  0.02925306       0.094
   0.11701225  0.05850613  0.02925306       0.047
   0.08775919  0.08775919  0.02925306       0.047
   0.11701225  0.08775919  0.02925306       0.047
   0.11701225  0.11701225  0.02925306       0.012
   0.05850613  0.05850613  0.05850613       0.016
   0.08775919  0.05850613  0.05850613       0.047
   0.11701225  0.05850613  0.05850613       0.023
   0.08775919  0.08775919  0.05850613       0.047
   0.11701225  0.08775919  0.05850613       0.047
   0.11701225  0.11701225  0.05850613       0.012
   0.08775919  0.08775919  0.08775919       0.016
   0.11701225  0.08775919  0.08775919       0.023
   0.11701225  0.11701225  0.08775919       0.012
   0.11701225  0.11701225  0.11701225       0.002

 k-points in reciprocal lattice and weights: pymatgen v2020.8.13 with grid density =
   0.00000000  0.00000000  0.00000000       0.002
   0.12500000  0.00000000  0.00000000       0.012
   0.25000000  0.00000000  0.00000000       0.012
   0.37500000  0.00000000  0.00000000       0.012
   0.50000000  0.00000000  0.00000000       0.006
   0.12500000  0.12500000  0.00000000       0.023
   0.25000000  0.12500000  0.00000000       0.047
   0.37500000  0.12500000  0.00000000       0.047
   0.50000000  0.12500000  0.00000000       0.023
   0.25000000  0.25000000  0.00000000       0.023
   0.37500000  0.25000000  0.00000000       0.047
   0.50000000  0.25000000  0.00000000       0.023
   0.37500000  0.37500000  0.00000000       0.023
   0.50000000  0.37500000  0.00000000       0.023
   0.50000000  0.50000000  0.00000000       0.006
   0.12500000  0.12500000  0.12500000       0.016
   0.25000000  0.12500000  0.12500000       0.047
   0.37500000  0.12500000  0.12500000       0.047
   0.50000000  0.12500000  0.12500000       0.023
   0.25000000  0.25000000  0.12500000       0.047
   0.37500000  0.25000000  0.12500000       0.094
   0.50000000  0.25000000  0.12500000       0.047
   0.37500000  0.37500000  0.12500000       0.047
   0.50000000  0.37500000  0.12500000       0.047
   0.50000000  0.50000000  0.12500000       0.012
   0.25000000  0.25000000  0.25000000       0.016
   0.37500000  0.25000000  0.25000000       0.047
   0.50000000  0.25000000  0.25000000       0.023
   0.37500000  0.37500000  0.25000000       0.047
   0.50000000  0.37500000  0.25000000       0.047
   0.50000000  0.50000000  0.25000000       0.012
   0.37500000  0.37500000  0.37500000       0.016
   0.50000000  0.37500000  0.37500000       0.023
   0.50000000  0.50000000  0.37500000       0.012
   0.50000000  0.50000000  0.50000000       0.002

 position of ions in fractional coordinates (direct lattice)
   0.00000000  0.00000000  0.00000000
   0.00000000  0.50000000  0.50000000
   0.50000000  0.00000000  0.50000000
   0.50000000  0.50000000  0.00000000
   0.50000000  0.00000000  0.00000000
   0.50000000  0.50000000  0.50000000
   0.00000000  0.00000000  0.50000000
   0.00000000  0.50000000  0.00000000

 position of ions in cartesian coordinates  (Angst):
   0.00000000  0.00000000  0.00000000
   0.00000000  2.13652841  2.13652841
   2.13652841  0.00000000  2.13652841
   2.13652841  2.13652841  0.00000000
   2.13652841  0.00000000  0.00000000
   2.13652841  2.13652841  2.13652841
   0.00000000  0.00000000  2.13652841
   0.00000000  2.13652841  0.00000000



--------------------------------------------------------------------------------------------------------


 k-point   1 :   0.0000 0.0000 0.0000  plane waves:    2553
 k-point   2 :   0.1250 0.0000 0.0000  plane waves:    2589
 k-point   3 :   0.2500 0.0000 0.0000  plane waves:    2609
 k-point   4 :   0.3750 0.0000 0.0000  plane waves:    2613
 k-point   5 :   0.5000 0.0000 0.0000  plane waves:    2594
 k-point   6 :   0.1250 0.1250 0.0000  plane waves:    2604
 k-point   7 :   0.2500 0.1250 0.0000  plane waves:    2620
 k-point   8 :   0.3750 0.1250 0.0000  plane waves:    2612
 k-point   9 :   0.5000 0.1250 0.0000  plane waves:    2612
 k-point  10 :   0.2500 0.2500 0.0000  plane waves:    2624
 k-point  11 :   0.3750 0.2500 0.0000  plane waves:    2618
 k-point  12 :   0.5000 0.2500 0.0000  plane waves:    2610
 k-point  13 :   0.3750 0.3750 0.0000  plane waves:    2604
 k-point  14 :   0.5000 0.3750 0.0000  plane waves:    2608
 k-point  15 :   0.5000 0.5000 0.0000  plane waves:    2624
 k-point  16 :   0.1250 0.1250 0.1250  plane waves:    2614
 k-point  17 :   0.2500 0.1250 0.1250  plane waves:    2609
 k-point  18 :   0.3750 0.1250 0.1250  plane waves:    2610
 k-point  19 :   0.5000 0.1250 0.1250  plane waves:    2614
 k-point  20 :   0.2500 0.2500 0.1250  plane waves:    2612
 k-point  21 :   0.3750 0.2500 0.1250  plane waves:    2604
 k-point  22 :   0.5000 0.2500 0.1250  plane waves:    2608
 k-point  23 :   0.3750 0.3750 0.1250  plane waves:    2602
 k-point  24 :   0.5000 0.3750 0.1250  plane waves:    2596
 k-point  25 :   0.5000 0.5000 0.1250  plane waves:    2596
 k-point  26 :   0.2500 0.2500 0.2500  plane waves:    2605
 k-point  27 :   0.3750 0.2500 0.2500  plane waves:    2598
 k-point  28 :   0.5000 0.2500 0.2500  plane waves:    2578
 k-point  29 :   0.3750 0.3750 0.2500  plane waves:    2591
 k-point  30 :   0.5000 0.3750 0.2500  plane waves:    2600
 k-point  31 :   0.5000 0.5000 0.2500  plane waves:    2592
 k-point  32 :   0.3750 0.3750 0.3750  plane waves:    2587
 k-point  33 :   0.5000 0.3750 0.3750  plane waves:    2590
 k-point  34 :   0.5000 0.5000 0.3750  plane waves:    2568
 k-point  35 :   0.5000 0.5000 0.5000  plane waves:    2608

 maximum and minimum number of plane-waves per node :       672      632

 maximum number of plane-waves:      2624
 maximum index in each direction:
   IXMAX=    8   IYMAX=    8   IZMAX=    8
   IXMIN=   -9   IYMIN=   -9   IZMIN=   -9


 parallel 3D FFT for wavefunctions:
    minimum data exchange during FFTs selected (reduces bandwidth)
 parallel 3D FFT for charge:
    minimum data exchange during FFTs selected (reduces bandwidth)


 total amount of memory used by VASP MPI-rank0    37050. kBytes
=======================================================================

   base      :      30000. kBytes
   nonl-proj :       4978. kBytes
   fftplans  :        364. kBytes
   grid      :        402. kBytes
   one-center:         16. kBytes
   wavefun   :       1290. kBytes

     INWAV:  cpu time      0.0000: real time      0.0000
 Broyden mixing: mesh for mixing (old mesh)
   NGX = 17   NGY = 17   NGZ = 17
  (NGX  = 56   NGY  = 56   NGZ  = 56)
  gives a total of   4913 points

 initial charge density was supplied:
 charge density of overlapping atoms calculated
 number of electron      56.0000000 magnetization
 keeping initial charge density in first step


--------------------------------------------------------------------------------------------------------


 Maximum index for augmentation-charges          373 (set IRDMAX)


--------------------------------------------------------------------------------------------------------


 First call to EWALD:  gamma=   0.415
 Maximum number of real-space cells 3x 3x 3
 Maximum number of reciprocal cells 3x 3x 3

    FEWALD:  cpu time      0.0007: real time      0.0007


--------------------------------------- Iteration      1(   1)  ---------------------------------------


vdW kernel read from vdw_kernel.bindat
  0.0000  0.2424  0.5071  0.7962  1.1119  1.4567  1.8333  2.2446  2.6937  3.1842
  3.7199  4.3049  4.9438  5.6415  6.4036  7.2358  8.1446  9.1372 10.2212 11.4050
 12.6979 14.1099 15.6519 17.3360 19.1751 21.1837 23.3773 25.7729 28.3892 31.2465
 34.3669 37.7748 41.4965 45.5611 50.0000

    POTLOK:  cpu time      0.8440: real time      0.8489
    SETDIJ:  cpu time      0.1810: real time      0.1812
    TRIAL :  cpu time      2.9556: real time      2.9567
    CORREC:  cpu time      0.0005: real time      0.0007
    --------------------------------------------
      LOOP:  cpu time      3.9829: real time      3.9897

 eigenvalue-minimisations  :  6720
 total energy-change (2. order) : 0.7380726E+02  (-0.4710245E+04)
 number of electron      56.0000000 magnetization
 augmentation part       56.0000000 magnetization

 Free energy of the ion-electron system (eV)
  ---------------------------------------------------
  alpha Z        PSCENC =       266.39916806
  Ewald energy   TEWEN  =     -3795.18877468
  -Hartree energ DENC   =     -1203.95944670
  -exchange      EXHF   =         0.00000000
  -V(xc)+E(xc)   XCENC  =       213.01695743
  PAW double counting   =      3991.85507611    -4466.04494646
  entropy T*S    EENTRO =        -0.00000000
  eigenvalues    EBANDS =      -927.48013005
  atomic energy  EATOM  =      5995.20935885
  ---------------------------------------------------
  free energy    TOTEN  =        73.80726256 eV

  energy without entropy =       73.80726256  energy(sigma->0) =       73.80726256


--------------------------------------------------------------------------------------------------------




--------------------------------------- Iteration      1(   2)  ---------------------------------------


    TRIAL :  cpu time      7.2813: real time      7.2826
    CORREC:  cpu time      0.0004: real time      0.0006
    --------------------------------------------
      LOOP:  cpu time      7.2857: real time      7.2966

 eigenvalue-minimisations  : 10080
 total energy-change (2. order) :-0.1104686E+03  (-0.1104686E+03)
 number of electron      56.0000000 magnetization
 augmentation part       56.0000000 magnetization

 Free energy of the ion-electron system (eV)
  ---------------------------------------------------
  alpha Z        PSCENC =       266.39916806
  Ewald energy   TEWEN  =     -3795.18877468
  -Hartree energ DENC   =     -1203.95944670
  -exchange      EXHF   =         0.00000000
  -V(xc)+E(xc)   XCENC  =       213.01695743
  PAW double counting   =      3991.85507611    -4466.04494646
  entropy T*S    EENTRO =        -0.00000000
  eigenvalues    EBANDS =     -1037.94872801
  atomic energy  EATOM  =      5995.20935885
  ---------------------------------------------------
  free energy    TOTEN  =       -36.66133540 eV

  energy without entropy =      -36.66133540  energy(sigma->0) =      -36.66133540


--------------------------------------------------------------------------------------------------------




--------------------------------------- Iteration      1(   3)  ---------------------------------------


    TRIAL :  cpu time      2.8381: real time      2.8389
    CORREC:  cpu time      0.0004: real time      0.0004
    --------------------------------------------
      LOOP:  cpu time      2.8422: real time      2.8531

 eigenvalue-minimisations  :  6720
 total energy-change (2. order) :-0.1802426E+00  (-0.1802426E+00)
 number of electron      56.0000000 magnetization
 augmentation part       56.0000000 magnetization

 Free energy of the ion-electron system (eV)
  ---------------------------------------------------
  alpha Z        PSCENC =       266.39916806
  Ewald energy   TEWEN  =     -3795.18877468
  -Hartree energ DENC   =     -1203.95944670
  -exchange      EXHF   =         0.00000000
  -V(xc)+E(xc)   XCENC  =       213.01695743
  PAW double counting   =      3991.85507611    -4466.04494646
  entropy T*S    EENTRO =        -0.00000000
  eigenvalues    EBANDS =     -1038.12897066
  atomic energy  EATOM  =      5995.20935885
  ---------------------------------------------------
  free energy    TOTEN  =       -36.84157805 eV

  energy without entropy =      -36.84157805  energy(sigma->0) =      -36.84157805


--------------------------------------------------------------------------------------------------------




--------------------------------------- Iteration      1(   4)  ---------------------------------------


    TRIAL :  cpu time     14.6189: real time     14.6217
    CORREC:  cpu time      0.0005: real time      0.0005
    --------------------------------------------
      LOOP:  cpu time     14.6326: real time     14.6355

 eigenvalue-minimisations  : 13056
 total energy-change (2. order) :-0.1327643E-03  (-0.1327643E-03)
 number of electron      56.0000000 magnetization
 augmentation part       56.0000000 magnetization

 Free energy of the ion-electron system (eV)
  ---------------------------------------------------
  alpha Z        PSCENC =       266.39916806
  Ewald energy   TEWEN  =     -3795.18877468
  -Hartree energ DENC   =     -1203.95944670
  -exchange      EXHF   =         0.00000000
  -V(xc)+E(xc)   XCENC  =       213.01695743
  PAW double counting   =      3991.85507611    -4466.04494646
  entropy T*S    EENTRO =        -0.00000000
  eigenvalues    EBANDS =     -1038.12910342
  atomic energy  EATOM  =      5995.20935885
  ---------------------------------------------------
  free energy    TOTEN  =       -36.84171081 eV

  energy without entropy =      -36.84171081  energy(sigma->0) =      -36.84171081


--------------------------------------------------------------------------------------------------------




--------------------------------------- Iteration      1(   5)  ---------------------------------------


    TRIAL :  cpu time      2.7115: real time      2.7116
    CORREC:  cpu time      0.0004: real time      0.0004
    CHARGE:  cpu time      0.0100: real time      0.0102
    --------------------------------------------
      LOOP:  cpu time      2.7265: real time      2.7364

 eigenvalue-minimisations  :  6720
 total energy-change (2. order) :-0.1038643E-08  (-0.1037188E-08)
 number of electron      55.9999922 magnetization
 augmentation part       19.9396999 magnetization

 Free energy of the ion-electron system (eV)
  ---------------------------------------------------
  alpha Z        PSCENC =       266.39916806
  Ewald energy   TEWEN  =     -3795.18877468
  -Hartree energ DENC   =     -1203.95944670
  -exchange      EXHF   =         0.00000000
  -V(xc)+E(xc)   XCENC  =       213.01695743
  PAW double counting   =      3991.85507611    -4466.04494646
  entropy T*S    EENTRO =        -0.00000000
  eigenvalues    EBANDS =     -1038.12910342
  atomic energy  EATOM  =      5995.20935885
  ---------------------------------------------------
  free energy    TOTEN  =       -36.84171082 eV

  energy without entropy =      -36.84171082  energy(sigma->0) =      -36.84171082


--------------------------------------------------------------------------------------------------------




--------------------------------------- Iteration      1(   6)  ---------------------------------------


    POTLOK:  cpu time      0.4696: real time      0.4696
    SETDIJ:  cpu time      0.1168: real time      0.1168
    TRIAL :  cpu time     12.2892: real time     12.2906
    CORREC:  cpu time      0.8864: real time      0.8870
    CHARGE:  cpu time      0.0088: real time      0.0088
    --------------------------------------------
      LOOP:  cpu time     13.7773: real time     13.7863

 eigenvalue-minimisations  :     0
 total energy-change (2. order) : 0.2090941E+02  (-0.1302119E+02)
 number of electron      55.9999908 magnetization
 augmentation part       19.4048961 magnetization

 Free energy of the ion-electron system (eV)
  ---------------------------------------------------
  alpha Z        PSCENC =       266.39916806
  Ewald energy   TEWEN  =     -3795.18877468
  -Hartree energ DENC   =     -1380.02203307
  -exchange      EXHF   =         0.00000000
  -V(xc)+E(xc)   XCENC  =       228.06094486
  PAW double counting   =      4524.21989998    -4994.42882458
  entropy T*S    EENTRO =        -0.00000000
  eigenvalues    EBANDS =      -860.18204015
  atomic energy  EATOM  =      5995.20935885
  ---------------------------------------------------
  free energy    TOTEN  =       -15.93230073 eV

  energy without entropy =      -15.93230073  energy(sigma->0) =      -15.93230073


--------------------------------------------------------------------------------------------------------




--------------------------------------- Iteration      1(   7)  ---------------------------------------


    POTLOK:  cpu time      0.4152: real time      0.4152
    SETDIJ:  cpu time      0.0005: real time      0.0005
    TRIAL :  cpu time      0.4327: real time      0.4327
    CORREC:  cpu time      1.1076: real time      1.1076
    CHARGE:  cpu time      0.0084: real time      0.0084
    --------------------------------------------
      LOOP:  cpu time      1.9772: real time      1.9775

 eigenvalue-minimisations  :     0
 total energy-change (2. order) :-0.1281169E+02  (-0.7217367E+00)
 number of electron      55.9999908 magnetization
 augmentation part       19.3510642 magnetization

 Free energy of the ion-electron system (eV)
  ---------------------------------------------------
  alpha Z        PSCENC =       266.39916806
  Ewald energy   TEWEN  =     -3795.18877468
  -Hartree energ DENC   =     -1257.82436480
  -exchange      EXHF   =         0.00000000
  -V(xc)+E(xc)   XCENC  =       218.72547141
  PAW double counting   =      4464.58327827    -4938.93508165
  entropy T*S    EENTRO =        -0.00000000
  eigenvalues    EBANDS =      -981.71304278
  atomic energy  EATOM  =      5995.20935885
  ---------------------------------------------------
  free energy    TOTEN  =       -28.74398732 eV

  energy without entropy =      -28.74398732  energy(sigma->0) =      -28.74398732


--------------------------------------------------------------------------------------------------------




--------------------------------------- Iteration      1(   8)  ---------------------------------------


    POTLOK:  cpu time      0.7769: real time      0.7769
    SETDIJ:  cpu time      0.0007: real time      0.0007
    TRIAL :  cpu time      0.4289: real time      0.4289
    CORREC:  cpu time      0.9093: real time      0.9093
    CHARGE:  cpu time      0.0086: real time      0.0086
    --------------------------------------------
      LOOP:  cpu time      2.1291: real time      2.1381

 eigenvalue-minimisations  :     0
 total energy-change (2. order) :-0.7277487E+00  (-0.3897901E-01)
 number of electron      55.9999908 magnetization
 augmentation part       19.3768967 magnetization

 Free energy of the ion-electron system (eV)
  ---------------------------------------------------
  alpha Z        PSCENC =       266.39916806
  Ewald energy   TEWEN  =     -3795.18877468
  -Hartree energ DENC   =     -1256.80360196
  -exchange      EXHF   =         0.00000000
  -V(xc)+E(xc)   XCENC  =       218.38624146
  PAW double counting   =      4368.34943239    -4842.14328710
  entropy T*S    EENTRO =        -0.00000000
  eigenvalues    EBANDS =      -983.68027308
  atomic energy  EATOM  =      5995.20935885
  ---------------------------------------------------
  free energy    TOTEN  =       -29.47173606 eV

  energy without entropy =      -29.47173606  energy(sigma->0) =      -29.47173606


--------------------------------------------------------------------------------------------------------




--------------------------------------- Iteration      1(   9)  ---------------------------------------


    POTLOK:  cpu time      0.6092: real time      0.6092
    SETDIJ:  cpu time      0.0005: real time      0.0005
    TRIAL :  cpu time      0.4277: real time      0.4277
    CORREC:  cpu time      0.8287: real time      0.8287
    CHARGE:  cpu time      0.0086: real time      0.0086
    --------------------------------------------
      LOOP:  cpu time      1.8799: real time      1.8885

 eigenvalue-minimisations  :     0
 total energy-change (2. order) :-0.3900266E-01  (-0.3120316E-02)
 number of electron      55.9999908 magnetization
 augmentation part       19.3763662 magnetization

 Free energy of the ion-electron system (eV)
  ---------------------------------------------------
  alpha Z        PSCENC =       266.39916806
  Ewald energy   TEWEN  =     -3795.18877468
  -Hartree energ DENC   =     -1257.39187224
  -exchange      EXHF   =         0.00000000
  -V(xc)+E(xc)   XCENC  =       218.41376860
  PAW double counting   =      4362.58491502    -4837.48182276
  entropy T*S    EENTRO =        -0.00000000
  eigenvalues    EBANDS =      -982.05547958
  atomic energy  EATOM  =      5995.20935885
  ---------------------------------------------------
  free energy    TOTEN  =       -29.51073873 eV

  energy without entropy =      -29.51073873  energy(sigma->0) =      -29.51073873


--------------------------------------------------------------------------------------------------------




--------------------------------------- Iteration      1(  10)  ---------------------------------------


    POTLOK:  cpu time      0.5670: real time      0.5670
    SETDIJ:  cpu time      0.0007: real time      0.0007
    TRIAL :  cpu time      0.4298: real time      0.4298
    CORREC:  cpu time      0.9416: real time      0.9417
    CHARGE:  cpu time      0.0082: real time      0.0082
    --------------------------------------------
      LOOP:  cpu time      1.9604: real time      1.9609

 eigenvalue-minimisations  :     0
 total energy-change (2. order) :-0.3129629E-02  (-0.3737743E-03)
 number of electron      55.9999908 magnetization
 augmentation part       19.3758403 magnetization

 Free energy of the ion-electron system (eV)
  ---------------------------------------------------
  alpha Z        PSCENC =       266.39916806
  Ewald energy   TEWEN  =     -3795.18877468
  -Hartree energ DENC   =     -1256.94225706
  -exchange      EXHF   =         0.00000000
  -V(xc)+E(xc)   XCENC  =       218.37592725
  PAW double counting   =      4357.50224760    -4832.28573264
  entropy T*S    EENTRO =        -0.00000000
  eigenvalues    EBANDS =      -982.58380574
  atomic energy  EATOM  =      5995.20935885
  ---------------------------------------------------
  free energy    TOTEN  =       -29.51386835 eV

  energy without entropy =      -29.51386835  energy(sigma->0) =      -29.51386835


--------------------------------------------------------------------------------------------------------




--------------------------------------- Iteration      1(  11)  ---------------------------------------


    POTLOK:  cpu time      0.5029: real time      0.5029
    SETDIJ:  cpu time      0.0008: real time      0.0008
    TRIAL :  cpu time      0.4307: real time      0.4307
    CORREC:  cpu time      0.7867: real time      0.7867
    CHARGE:  cpu time      0.0086: real time      0.0086
    --------------------------------------------
      LOOP:  cpu time      1.7337: real time      1.7430

 eigenvalue-minimisations  :     0
 total energy-change (2. order) :-0.3758902E-03  (-0.1557974E-03)
 number of electron      55.9999908 magnetization
 augmentation part       19.3760765 magnetization

 Free energy of the ion-electron system (eV)
  ---------------------------------------------------
  alpha Z        PSCENC =       266.39916806
  Ewald energy   TEWEN  =     -3795.18877468
  -Hartree energ DENC   =     -1256.88444631
  -exchange      EXHF   =         0.00000000
  -V(xc)+E(xc)   XCENC  =       218.36872134
  PAW double counting   =      4356.07862586    -4830.82618542
  entropy T*S    EENTRO =        -0.00000000
  eigenvalues    EBANDS =      -982.67071194
  atomic energy  EATOM  =      5995.20935885
  ---------------------------------------------------
  free energy    TOTEN  =       -29.51424424 eV

  energy without entropy =      -29.51424424  energy(sigma->0) =      -29.51424424


--------------------------------------------------------------------------------------------------------




--------------------------------------- Iteration      1(  12)  ---------------------------------------


    POTLOK:  cpu time      0.4658: real time      0.4659
    SETDIJ:  cpu time      0.0106: real time      0.0106
    TRIAL :  cpu time      0.4320: real time      0.4321
    CORREC:  cpu time      0.8091: real time      0.8091
    CHARGE:  cpu time      0.0084: real time      0.0084
    --------------------------------------------
      LOOP:  cpu time      1.7386: real time      1.7390

 eigenvalue-minimisations  :     0
 total energy-change (2. order) :-0.1560565E-03  (-0.3223441E-04)
 number of electron      55.9999908 magnetization
 augmentation part       19.3761168 magnetization

 Free energy of the ion-electron system (eV)
  ---------------------------------------------------
  alpha Z        PSCENC =       266.39916806
  Ewald energy   TEWEN  =     -3795.18877468
  -Hartree energ DENC   =     -1256.92551895
  -exchange      EXHF   =         0.00000000
  -V(xc)+E(xc)   XCENC  =       218.36983523
  PAW double counting   =      4356.62430857    -4831.36522443
  entropy T*S    EENTRO =        -0.00000000
  eigenvalues    EBANDS =      -982.63755295
  atomic energy  EATOM  =      5995.20935885
  ---------------------------------------------------
  free energy    TOTEN  =       -29.51440030 eV

  energy without entropy =      -29.51440030  energy(sigma->0) =      -29.51440030


--------------------------------------------------------------------------------------------------------




--------------------------------------- Iteration      1(  13)  ---------------------------------------


    POTLOK:  cpu time      0.5475: real time      0.5475
    SETDIJ:  cpu time      0.0006: real time      0.0006
    TRIAL :  cpu time      0.4316: real time      0.4316
    CORREC:  cpu time      0.8565: real time      0.8566
    CHARGE:  cpu time      0.0084: real time      0.0084
    --------------------------------------------
      LOOP:  cpu time      1.8483: real time      1.8579

 eigenvalue-minimisations  :     0
 total energy-change (2. order) :-0.3242179E-04  (-0.3778802E-05)
 number of electron      55.9999908 magnetization
 augmentation part       19.3761026 magnetization

 Free energy of the ion-electron system (eV)
  ---------------------------------------------------
  alpha Z        PSCENC =       266.39916806
  Ewald energy   TEWEN  =     -3795.18877468
  -Hartree energ DENC   =     -1256.94138886
  -exchange      EXHF   =         0.00000000
  -V(xc)+E(xc)   XCENC  =       218.37091466
  PAW double counting   =      4357.03821938    -4831.77376602
  entropy T*S    EENTRO =        -0.00000000
  eigenvalues    EBANDS =      -982.62816412
  atomic energy  EATOM  =      5995.20935885
  ---------------------------------------------------
  free energy    TOTEN  =       -29.51443272 eV

  energy without entropy =      -29.51443272  energy(sigma->0) =      -29.51443272


--------------------------------------------------------------------------------------------------------




--------------------------------------- Iteration      1(  14)  ---------------------------------------


    POTLOK:  cpu time      0.6383: real time      0.6383
    SETDIJ:  cpu time      0.0007: real time      0.0007
    TRIAL :  cpu time      0.4297: real time      0.4297
    CORREC:  cpu time      1.0388: real time      1.0389
    CHARGE:  cpu time      0.0084: real time      0.0084
    --------------------------------------------
      LOOP:  cpu time      2.1204: real time      2.1296

 eigenvalue-minimisations  :     0
 total energy-change (2. order) :-0.3854230E-05  (-0.4096345E-06)
 number of electron      55.9999908 magnetization
 augmentation part       19.3761485 magnetization

 Free energy of the ion-electron system (eV)
  ---------------------------------------------------
  alpha Z        PSCENC =       266.39916806
  Ewald energy   TEWEN  =     -3795.18877468
  -Hartree energ DENC   =     -1256.94360034
  -exchange      EXHF   =         0.00000000
  -V(xc)+E(xc)   XCENC  =       218.37107099
  PAW double counting   =      4357.08041959    -4831.81399472
  entropy T*S    EENTRO =        -0.00000000
  eigenvalues    EBANDS =      -982.62808433
  atomic energy  EATOM  =      5995.20935885
  ---------------------------------------------------
  free energy    TOTEN  =       -29.51443658 eV

  energy without entropy =      -29.51443658  energy(sigma->0) =      -29.51443658


--------------------------------------------------------------------------------------------------------




--------------------------------------- Iteration      1(  15)  ---------------------------------------


    POTLOK:  cpu time      0.4681: real time      0.4682
    SETDIJ:  cpu time      0.0957: real time      0.0957
    TRIAL :  cpu time      0.4316: real time      0.4317
    CORREC:  cpu time      4.3104: real time      4.3108
    CHARGE:  cpu time      0.0083: real time      0.0083
    --------------------------------------------
      LOOP:  cpu time      5.3265: real time      5.3272

 eigenvalue-minimisations  :     0
 total energy-change (2. order) :-0.4129552E-06  (-0.2012910E-06)
 number of electron      55.9999908 magnetization
 augmentation part       19.3762379 magnetization

 Free energy of the ion-electron system (eV)
  ---------------------------------------------------
  alpha Z        PSCENC =       266.39916806
  Ewald energy   TEWEN  =     -3795.18877468
  -Hartree energ DENC   =     -1256.94741148
  -exchange      EXHF   =         0.00000000
  -V(xc)+E(xc)   XCENC  =       218.37131425
  PAW double counting   =      4357.11749738    -4831.85288179
  entropy T*S    EENTRO =        -0.00000000
  eigenvalues    EBANDS =      -982.62270759
  atomic energy  EATOM  =      5995.20935885
  ---------------------------------------------------
  free energy    TOTEN  =       -29.51443699 eV

  energy without entropy =      -29.51443699  energy(sigma->0) =      -29.51443699


--------------------------------------------------------------------------------------------------------




--------------------------------------- Iteration      1(  16)  ---------------------------------------


    POTLOK:  cpu time      0.6078: real time      0.6078
    SETDIJ:  cpu time      0.0005: real time      0.0005
    TRIAL :  cpu time      0.4300: real time      0.4300
    CORREC:  cpu time      0.9634: real time      0.9634
    CHARGE:  cpu time      0.0086: real time      0.0086
    --------------------------------------------
      LOOP:  cpu time      2.0144: real time      2.0235

 eigenvalue-minimisations  :     0
 total energy-change (2. order) : 0.3611831E-06  (-0.4759000E-06)
 number of electron      55.9999908 magnetization
 augmentation part       19.3762003 magnetization

 Free energy of the ion-electron system (eV)
  ---------------------------------------------------
  alpha Z        PSCENC =       266.39916806
  Ewald energy   TEWEN  =     -3795.18877468
  -Hartree energ DENC   =     -1256.95525274
  -exchange      EXHF   =         0.00000000
  -V(xc)+E(xc)   XCENC  =       218.37182468
  PAW double counting   =      4357.17405749    -4831.91499423
  entropy T*S    EENTRO =        -0.00000000
  eigenvalues    EBANDS =      -982.60982406
  atomic energy  EATOM  =      5995.20935885
  ---------------------------------------------------
  free energy    TOTEN  =       -29.51443663 eV

  energy without entropy =      -29.51443663  energy(sigma->0) =      -29.51443663


--------------------------------------------------------------------------------------------------------




--------------------------------------- Iteration      1(  17)  ---------------------------------------


    POTLOK:  cpu time      0.3702: real time      0.3702
    SETDIJ:  cpu time      0.2803: real time      0.2803
    TRIAL :  cpu time      0.4284: real time      0.4285
    CORREC:  cpu time      1.0897: real time      1.0897
    CHARGE:  cpu time      0.0086: real time      0.0086
    --------------------------------------------
      LOOP:  cpu time      2.1833: real time      2.1909

 eigenvalue-minimisations  :     0
 total energy-change (2. order) :-0.4649355E-06  (-0.5365344E-07)
 number of electron      55.9999908 magnetization
 augmentation part       19.3761773 magnetization

 Free energy of the ion-electron system (eV)
  ---------------------------------------------------
  alpha Z        PSCENC =       266.39916806
  Ewald energy   TEWEN  =     -3795.18877468
  -Hartree energ DENC   =     -1256.95297464
  -exchange      EXHF   =         0.00000000
  -V(xc)+E(xc)   XCENC  =       218.37166810
  PAW double counting   =      4357.15268381    -4831.89172500
  entropy T*S    EENTRO =        -0.00000000
  eigenvalues    EBANDS =      -982.61384160
  atomic energy  EATOM  =      5995.20935885
  ---------------------------------------------------
  free energy    TOTEN  =       -29.51443709 eV

  energy without entropy =      -29.51443709  energy(sigma->0) =      -29.51443709


--------------------------------------------------------------------------------------------------------




--------------------------------------- Iteration      1(  18)  ---------------------------------------


    POTLOK:  cpu time      0.4976: real time      0.4976
    SETDIJ:  cpu time      0.0005: real time      0.0005
    TRIAL :  cpu time      0.4280: real time      0.4280
    CORREC:  cpu time      1.0784: real time      1.0784
    EDDIAG:  cpu time      0.3494: real time      0.3497
    CHARGE:  cpu time      0.0086: real time      0.0086
    --------------------------------------------
      LOOP:  cpu time      2.3756: real time      2.3765

 eigenvalue-minimisations  :     0
 total energy-change (2. order) :-0.5384209E-07  (-0.5137179E-08)
 number of electron      55.9999908 magnetization
 augmentation part       19.3761738 magnetization

 Free energy of the ion-electron system (eV)
  ---------------------------------------------------
  alpha Z        PSCENC =       266.39916806
  Ewald energy   TEWEN  =     -3795.18877468
  -Hartree energ DENC   =     -1256.95149480
  -exchange      EXHF   =         0.00000000
  -V(xc)+E(xc)   XCENC  =       218.37156679
  PAW double counting   =      4357.13608747    -4831.87405932
  entropy T*S    EENTRO =        -0.00000000
  eigenvalues    EBANDS =      -982.61628952
  atomic energy  EATOM  =      5995.20935885
  ---------------------------------------------------
  free energy    TOTEN  =       -29.51443715 eV

  energy without entropy =      -29.51443715  energy(sigma->0) =      -29.51443715


--------------------------------------------------------------------------------------------------------


  average scaling for gradient   1.2994


 average (electrostatic) potential at core
  the test charge radii are     0.8294  0.7215
  (the norm of the test charge is              1.0000)
       1 -42.2390       2 -42.2390       3 -42.2390       4 -42.2390       5 -70.4314
       6 -70.4314       7 -70.4314       8 -70.4314



 E-fermi :   2.7032     XC(G=0): -11.0243     alpha+bet :-12.2438

 Fermi energy:         2.7031887490

 k-point     1 :       0.0000    0.0000    0.0000
  band No.  band energies     occupation
      1     -37.1633      2.00000
      2     -37.1633      2.00000
      3     -37.1633      2.00000
      4     -37.1279      2.00000
      5     -37.1279      2.00000
      6     -37.1279      2.00000
      7     -37.1279      2.00000
      8     -37.1279      2.00000
      9     -37.1279      2.00000
     10     -37.1050      2.00000
     11     -37.1050      2.00000
     12     -37.1050      2.00000
     13     -14.5358      2.00000
     14     -13.1516      2.00000
     15     -13.1516      2.00000
     16     -13.1516      2.00000
     17      -1.2788      2.00000
     18      -1.2788      2.00000
     19      -1.2788      2.00000
     20       1.2372      2.00000
     21       1.2372      2.00000
     22       1.2372      2.00000
     23       1.2372      2.00000
     24       1.2372      2.00000
     25       1.2372      2.00000
     26       2.4925      2.00000
     27       2.4925      2.00000
     28       2.4925      2.00000
     29       7.1607      0.00000
     30      11.9980      0.00000
     31      11.9980      0.00000
     32      11.9980      0.00000
     33      12.2585      0.00000
     34      12.2585      0.00000
     35      12.2585      0.00000
     36      15.4860      0.00000
     37      15.4860      0.00000
     38      15.4860      0.00000
     39      18.3397      0.00000
     40      18.3397      0.00000
     41      18.3397      0.00000
     42      21.1287      0.00000
     43      21.1287      0.00000
     44      21.1287      0.00000
     45      21.1287      0.00000
     46      21.1287      0.00000
     47      21.1287      0.00000
     48      22.5072      0.00000
     49      23.7781      0.00000
     50      23.7781      0.00000
     51      26.2796      0.00000
     52      26.2796      0.00000
     53      26.2796      0.00000
     54      27.0884      0.00000
     55      27.0884      0.00000
     56      27.0884      0.00000
     57      28.9032      0.00000
     58      28.9032      0.00000
     59      28.9032      0.00000
     60      32.8740      0.00000
     61      32.8740      0.00000
     62      32.8740      0.00000
     63      32.8740      0.00000
     64      32.8740      0.00000
     65      32.8740      0.00000
     66      36.3886      0.00000
     67      36.3886      0.00000
     68      36.3886      0.00000
     69      38.8090      0.00000
     70      38.8090      0.00000
     71      38.8090      0.00000
     72      38.8090      0.00000
     73      38.8090      0.00000
     74      38.8090      0.00000
     75      39.8620      0.00000
     76      39.8620      0.00000
     77      39.8620      0.00000
     78      40.2982      0.00000
     79      40.7394      0.00000
     80      40.7394      0.00000
     81      40.7394      0.00000
     82      42.9162      0.00000
     83      42.9162      0.00000
     84      42.9162      0.00000
     85      42.9162      0.00000
     86      42.9162      0.00000
     87      42.9162      0.00000
     88      44.8420      0.00000
     89      44.8420      0.00000
     90      44.8420      0.00000
     91      45.5237      0.00000
     92      45.5237      0.00000
     93      45.5237      0.00000
     94      50.4368      0.00000
     95      50.4368      0.00000
     96      50.4368      0.00000

 k-point     2 :       0.1250    0.0000    0.0000
  band No.  band energies     occupation
      1     -37.1620      2.00000
      2     -37.1620      2.00000
      3     -37.1617      2.00000
      4     -37.1294      2.00000
      5     -37.1294      2.00000
      6     -37.1285      2.00000
      7     -37.1285      2.00000
      8     -37.1272      2.00000
      9     -37.1272      2.00000
     10     -37.1072      2.00000
     11     -37.1058      2.00000
     12     -37.1058      2.00000
     13     -14.4837      2.00000
     14     -13.2043      2.00000
     15     -13.1436      2.00000
     16     -13.1436      2.00000
     17      -1.2077      2.00000
     18      -1.2077      2.00000
     19      -1.2001      2.00000
     20       1.1012      2.00000
     21       1.1012      2.00000
     22       1.1764      2.00000
     23       1.1764      2.00000
     24       1.2776      2.00000
     25       1.2776      2.00000
     26       2.2007      2.00000
     27       2.4357      2.00000
     28       2.4357      2.00000
     29       7.5024      0.00000
     30      12.1225      0.00000
     31      12.2121      0.00000
     32      12.2121      0.00000
     33      12.2277      0.00000
     34      12.4875      0.00000
     35      12.4875      0.00000
     36      15.4124      0.00000
     37      15.4124      0.00000
     38      15.5034      0.00000
     39      17.6210      0.00000
     40      18.4594      0.00000
     41      18.4594      0.00000
     42      20.6285      0.00000
     43      20.6285      0.00000
     44      21.0253      0.00000
     45      21.0253      0.00000
     46      21.2920      0.00000
     47      21.2920      0.00000
     48      22.7916      0.00000
     49      23.4820      0.00000
     50      23.8946      0.00000
     51      26.4724      0.00000
     52      26.4724      0.00000
     53      27.1307      0.00000
     54      27.3731      0.00000
     55      27.3950      0.00000
     56      27.3950      0.00000
     57      28.4950      0.00000
     58      29.1079      0.00000
     59      29.1079      0.00000
     60      31.1293      0.00000
     61      31.1293      0.00000
     62      32.8136      0.00000
     63      32.8136      0.00000
     64      32.9690      0.00000
     65      32.9690      0.00000
     66      37.0522      0.00000
     67      37.5070      0.00000
     68      37.5070      0.00000
     69      37.7589      0.00000
     70      37.7589      0.00000
     71      38.3872      0.00000
     72      38.3872      0.00000
     73      39.0141      0.00000
     74      39.2699      0.00000
     75      39.2699      0.00000
     76      39.6961      0.00000
     77      39.6961      0.00000
     78      40.3035      0.00000
     79      41.2344      0.00000
     80      41.3537      0.00000
     81      41.5337      0.00000
     82      41.5337      0.00000
     83      42.2926      0.00000
     84      42.2926      0.00000
     85      42.5850      0.00000
     86      42.5850      0.00000
     87      44.1216      0.00000
     88      44.1216      0.00000
     89      45.1988      0.00000
     90      45.1988      0.00000
     91      46.2225      0.00000
     92      46.2225      0.00000
     93      49.3436      0.00000
     94      49.9220      0.00000
     95      49.9220      0.00000
     96      50.2118      0.00000

 k-point     3 :       0.2500    0.0000    0.0000
  band No.  band energies     occupation
      1     -37.1584      2.00000
      2     -37.1584      2.00000
      3     -37.1559      2.00000
      4     -37.1334      2.00000
      5     -37.1334      2.00000
      6     -37.1289      2.00000
      7     -37.1289      2.00000
      8     -37.1247      2.00000
      9     -37.1247      2.00000
     10     -37.1146      2.00000
     11     -37.1084      2.00000
     12     -37.1084      2.00000
     13     -14.3351      2.00000
     14     -13.3545      2.00000
     15     -13.1241      2.00000
     16     -13.1241      2.00000
     17      -0.9983      2.00000
     18      -0.9983      2.00000
     19      -0.9577      2.00000
     20       0.7420      2.00000
     21       0.7420      2.00000
     22       1.0343      2.00000
     23       1.0343      2.00000
     24       1.3957      2.00000
     25       1.3957      2.00000
     26       1.5251      2.00000
     27       2.2787      2.00000
     28       2.2787      2.00000
     29       8.3290      0.00000
     30      11.9808      0.00000
     31      12.4953      0.00000
     32      12.7767      0.00000
     33      12.7767      0.00000
     34      13.1096      0.00000
     35      13.1096      0.00000
     36      15.1857      0.00000
     37      15.1857      0.00000
     38      15.7630      0.00000
     39      16.3178      0.00000
     40      18.7906      0.00000
     41      18.7906      0.00000
     42      19.5017      0.00000
     43      19.5017      0.00000
     44      20.7352      0.00000
     45      20.7352      0.00000
     46      21.0951      0.00000
     47      21.8091      0.00000
     48      21.8091      0.00000
     49      24.2417      0.00000
     50      25.5534      0.00000
     51      27.0553      0.00000
     52      27.0553      0.00000
     53      27.5707      0.00000
     54      27.8723      0.00000
     55      27.8723      0.00000
     56      28.1090      0.00000
     57      28.4061      0.00000
     58      28.5056      0.00000
     59      28.5056      0.00000
     60      29.7346      0.00000
     61      29.7346      0.00000
     62      32.2725      0.00000
     63      32.2725      0.00000
     64      33.2357      0.00000
     65      33.2357      0.00000
     66      36.6531      0.00000
     67      36.6531      0.00000
     68      37.4928      0.00000
     69      37.4928      0.00000
     70      37.5545      0.00000
     71      38.0632      0.00000
     72      38.2473      0.00000
     73      38.2473      0.00000
     74      38.7423      0.00000
     75      39.1996      0.00000
     76      39.1996      0.00000
     77      39.2560      0.00000
     78      40.2903      0.00000
     79      40.2903      0.00000
     80      41.2497      0.00000
     81      41.2497      0.00000
     82      41.8927      0.00000
     83      41.8927      0.00000
     84      43.0028      0.00000
     85      44.2697      0.00000
     86      44.2697      0.00000
     87      45.0506      0.00000
     88      45.0506      0.00000
     89      45.7661      0.00000
     90      45.7661      0.00000
     91      47.9637      0.00000
     92      47.9637      0.00000
     93      48.7751      0.00000
     94      48.7751      0.00000
     95      49.4217      0.00000
     96      49.4217      0.00000

 k-point     4 :       0.3750    0.0000    0.0000
  band No.  band energies     occupation
      1     -37.1527      2.00000
      2     -37.1527      2.00000
      3     -37.1467      2.00000
      4     -37.1391      2.00000
      5     -37.1391      2.00000
      6     -37.1296      2.00000
      7     -37.1296      2.00000
      8     -37.1246      2.00000
      9     -37.1209      2.00000
     10     -37.1209      2.00000
     11     -37.1123      2.00000
     12     -37.1123      2.00000
     13     -14.1114      2.00000
     14     -13.5800      2.00000
     15     -13.1045      2.00000
     16     -13.1045      2.00000
     17      -0.6628      2.00000
     18      -0.6628      2.00000
     19      -0.5442      2.00000
     20       0.2655      2.00000
     21       0.2655      2.00000
     22       0.7508      2.00000
     23       0.8969      2.00000
     24       0.8969      2.00000
     25       1.5800      2.00000
     26       1.5800      2.00000
     27       2.0559      2.00000
     28       2.0559      2.00000
     29       9.3566      0.00000
     30      11.3416      0.00000
     31      13.1136      0.00000
     32      13.5088      0.00000
     33      13.5088      0.00000
     34      13.9122      0.00000
     35      13.9122      0.00000
     36      14.7908      0.00000
     37      14.7908      0.00000
     38      15.0527      0.00000
     39      16.5382      0.00000
     40      18.3181      0.00000
     41      18.3181      0.00000
     42      19.2634      0.00000
     43      19.2634      0.00000
     44      19.3627      0.00000
     45      20.3054      0.00000
     46      20.3054      0.00000
     47      22.7481      0.00000
     48      22.7481      0.00000
     49      24.8119      0.00000
     50      26.1213      0.00000
     51      26.1213      0.00000
     52      26.5354      0.00000
     53      28.0315      0.00000
     54      28.0315      0.00000
     55      28.0983      0.00000
     56      28.1479      0.00000
     57      28.1479      0.00000
     58      28.9841      0.00000
     59      29.3357      0.00000
     60      30.4711      0.00000
     61      30.4711      0.00000
     62      30.9286      0.00000
     63      30.9286      0.00000
     64      33.5917      0.00000
     65      33.5917      0.00000
     66      34.1287      0.00000
     67      36.6427      0.00000
     68      36.6427      0.00000
     69      36.7330      0.00000
     70      36.7330      0.00000
     71      37.3675      0.00000
     72      38.0961      0.00000
     73      38.4165      0.00000
     74      38.4165      0.00000
     75      38.7819      0.00000
     76      38.7819      0.00000
     77      40.2680      0.00000
     78      40.2680      0.00000
     79      41.0534      0.00000
     80      41.3036      0.00000
     81      41.3036      0.00000
     82      41.3873      0.00000
     83      41.3873      0.00000
     84      43.9854      0.00000
     85      43.9854      0.00000
     86      45.1369      0.00000
     87      46.7740      0.00000
     88      46.7740      0.00000
     89      46.8520      0.00000
     90      47.6926      0.00000
     91      47.6926      0.00000
     92      48.0631      0.00000
     93      48.0631      0.00000
     94      48.3033      0.00000
     95      48.3033      0.00000
     96      50.3016      0.00000

 k-point     5 :       0.5000    0.0000    0.0000
  band No.  band energies     occupation
      1     -37.1457      2.00000
      2     -37.1457      2.00000
      3     -37.1457      2.00000
      4     -37.1457      2.00000
      5     -37.1359      2.00000
      6     -37.1359      2.00000
      7     -37.1297      2.00000
      8     -37.1297      2.00000
      9     -37.1166      2.00000
     10     -37.1166      2.00000
     11     -37.1166      2.00000
     12     -37.1166      2.00000
     13     -13.8461      2.00000
     14     -13.8461      2.00000
     15     -13.0963      2.00000
     16     -13.0963      2.00000
     17      -0.2266      2.00000
     18      -0.2266      2.00000
     19      -0.2266      2.00000
     20      -0.2266      2.00000
     21       0.0359      2.00000
     22       0.0359      2.00000
     23       0.8415      2.00000
     24       0.8415      2.00000
     25       1.8100      2.00000
     26       1.8100      2.00000
     27       1.8100      2.00000
     28       1.8100      2.00000
     29      10.4087      0.00000
     30      10.4087      0.00000
     31      13.9711      0.00000
     32      13.9711      0.00000
     33      14.2197      0.00000
     34      14.2197      0.00000
     35      14.2197      0.00000
     36      14.2197      0.00000
     37      14.3652      0.00000
     38      14.3652      0.00000
     39      17.7307      0.00000
     40      17.7307      0.00000
     41      17.7920      0.00000
     42      17.7920      0.00000
     43      19.7935      0.00000
     44      19.7935      0.00000
     45      19.7935      0.00000
     46      19.7935      0.00000
     47      24.1799      0.00000
     48      24.1799      0.00000
     49      24.1799      0.00000
     50      24.1799      0.00000
     51      25.5884      0.00000
     52      25.5884      0.00000
     53      28.2349      0.00000
     54      28.2349      0.00000
     55      29.3696      0.00000
     56      29.3696      0.00000
     57      29.3696      0.00000
     58      29.3696      0.00000
     59      29.5376      0.00000
     60      29.5376      0.00000
     61      30.7918      0.00000
     62      30.7918      0.00000
     63      30.9708      0.00000
     64      30.9708      0.00000
     65      33.7911      0.00000
     66      33.7911      0.00000
     67      36.2640      0.00000
     68      36.2640      0.00000
     69      37.3377      0.00000
     70      37.3377      0.00000
     71      37.4976      0.00000
     72      37.4976      0.00000
     73      37.4976      0.00000
     74      37.4976      0.00000
     75      39.4403      0.00000
     76      39.4403      0.00000
     77      39.4403      0.00000
     78      39.4403      0.00000
     79      41.0822      0.00000
     80      41.0822      0.00000
     81      42.6482      0.00000
     82      42.6482      0.00000
     83      42.6482      0.00000
     84      42.6482      0.00000
     85      43.7848      0.00000
     86      43.7848      0.00000
     87      47.2526      0.00000
     88      47.2526      0.00000
     89      47.4839      0.00000
     90      47.4839      0.00000
     91      47.4839      0.00000
     92      47.4839      0.00000
     93      47.6901      0.00000
     94      47.6901      0.00000
     95      51.7379      0.00000
     96      51.7379      0.00000

 k-point     6 :       0.1250    0.1250    0.0000
  band No.  band energies     occupation
      1     -37.1608      2.00000
      2     -37.1608      2.00000
      3     -37.1607      2.00000
      4     -37.1327      2.00000
      5     -37.1287      2.00000
      6     -37.1287      2.00000
      7     -37.1274      2.00000
      8     -37.1274      2.00000
      9     -37.1265      2.00000
     10     -37.1112      2.00000
     11     -37.1066      2.00000
     12     -37.1050      2.00000
     13     -14.4328      2.00000
     14     -13.1939      2.00000
     15     -13.1939      2.00000
     16     -13.1377      2.00000
     17      -1.1439      2.00000
     18      -1.1439      2.00000
     19      -1.1371      2.00000
     20       0.8229      2.00000
     21       1.1441      2.00000
     22       1.1441      2.00000
     23       1.2280      2.00000
     24       1.2280      2.00000
     25       1.2879      2.00000
     26       1.8894      2.00000
     27       2.3751      2.00000
     28       2.4510      2.00000
     29       7.7945      0.00000
     30      12.2805      0.00000
     31      12.3291      0.00000
     32      12.3291      0.00000
     33      12.4424      0.00000
     34      12.4424      0.00000
     35      12.8088      0.00000
     36      15.3455      0.00000
     37      15.4309      0.00000
     38      15.4309      0.00000
     39      17.1357      0.00000
     40      18.5370      0.00000
     41      18.5940      0.00000
     42      20.5786      0.00000
     43      20.5786      0.00000
     44      20.7444      0.00000
     45      20.8711      0.00000
     46      21.1905      0.00000
     47      21.1905      0.00000
     48      22.6007      0.00000
     49      23.3971      0.00000
     50      24.1190      0.00000
     51      26.7342      0.00000
     52      26.7566      0.00000
     53      27.6150      0.00000
     54      27.6150      0.00000
     55      27.7417      0.00000
     56      27.7648      0.00000
     57      28.5927      0.00000
     58      28.5927      0.00000
     59      29.2688      0.00000
     60      30.5179      0.00000
     61      31.4722      0.00000
     62      31.4722      0.00000
     63      32.1319      0.00000
     64      32.8711      0.00000
     65      32.8711      0.00000
     66      37.0637      0.00000
     67      37.0637      0.00000
     68      37.2245      0.00000
     69      37.2245      0.00000
     70      38.1997      0.00000
     71      38.3067      0.00000
     72      38.3524      0.00000
     73      38.8761      0.00000
     74      38.8761      0.00000
     75      39.5577      0.00000
     76      39.9587      0.00000
     77      39.9968      0.00000
     78      41.0796      0.00000
     79      41.1967      0.00000
     80      41.1967      0.00000
     81      41.7703      0.00000
     82      41.9469      0.00000
     83      41.9469      0.00000
     84      41.9891      0.00000
     85      43.3566      0.00000
[...]
     69      34.9041      0.00000
     70      34.9041      0.00000
     71      34.9041      0.00000
     72      35.9265      0.00000
     73      35.9265      0.00000
     74      36.5790      0.00000
     75      36.5790      0.00000
     76      36.5790      0.00000
     77      38.6968      0.00000
     78      43.3384      0.00000
     79      43.3384      0.00000
     80      43.3384      0.00000
     81      46.2860      0.00000
     82      46.2860      0.00000
     83      46.4785      0.00000
     84      46.4785      0.00000
     85      46.4785      0.00000
     86      47.2501      0.00000
     87      47.2501      0.00000
     88      47.2501      0.00000
     89      47.8358      0.00000
     90      47.8358      0.00000
     91      47.8358      0.00000
     92      47.9651      0.00000
     93      50.4176      0.00000
     94      50.4176      0.00000
     95      50.4176      0.00000
     96      52.2538      0.00000

 k-point    33 :       0.5000    0.3750    0.3750
  band No.  band energies     occupation
      1     -37.1709      2.00000
      2     -37.1709      2.00000
      3     -37.1681      2.00000
      4     -37.1681      2.00000
      5     -37.1172      2.00000
      6     -37.1172      2.00000
      7     -37.1135      2.00000
      8     -37.1135      2.00000
      9     -37.1126      2.00000
     10     -37.1126      2.00000
     11     -37.1126      2.00000
     12     -37.1126      2.00000
     13     -13.4315      2.00000
     14     -13.4315      2.00000
     15     -13.3181      2.00000
     16     -13.3181      2.00000
     17      -1.6612      2.00000
     18      -1.6612      2.00000
     19      -1.5411      2.00000
     20      -1.5411      2.00000
     21       1.5157      2.00000
     22       1.5157      2.00000
     23       1.8230      2.00000
     24       1.8230      2.00000
     25       1.8294      2.00000
     26       1.8294      2.00000
     27       1.8831      2.00000
     28       1.8831      2.00000
     29      10.6294      0.00000
     30      10.6294      0.00000
     31      11.0322      0.00000
     32      11.0322      0.00000
     33      14.7794      0.00000
     34      14.7794      0.00000
     35      14.8090      0.00000
     36      14.8090      0.00000
     37      17.4679      0.00000
     38      17.4679      0.00000
     39      18.2677      0.00000
     40      18.2677      0.00000
     41      18.8182      0.00000
     42      18.8182      0.00000
     43      18.8972      0.00000
     44      18.8972      0.00000
     45      23.4727      0.00000
     46      23.4727      0.00000
     47      23.8685      0.00000
     48      23.8685      0.00000
     49      23.9972      0.00000
     50      23.9972      0.00000
     51      24.2580      0.00000
     52      24.2580      0.00000
     53      24.7317      0.00000
     54      24.7317      0.00000
     55      25.2935      0.00000
     56      25.2935      0.00000
     57      31.0805      0.00000
     58      31.0805      0.00000
     59      31.6021      0.00000
     60      31.6021      0.00000
     61      32.0244      0.00000
     62      32.0244      0.00000
     63      32.1206      0.00000
     64      32.1206      0.00000
     65      32.1326      0.00000
     66      32.1326      0.00000
     67      33.1072      0.00000
     68      33.1072      0.00000
     69      34.1118      0.00000
     70      34.1118      0.00000
     71      35.4054      0.00000
     72      35.4054      0.00000
     73      35.4581      0.00000
     74      35.4581      0.00000
     75      36.3684      0.00000
     76      36.3684      0.00000
     77      40.8388      0.00000
     78      40.8388      0.00000
     79      44.7622      0.00000
     80      44.7622      0.00000
     81      46.1975      0.00000
     82      46.1975      0.00000
     83      46.6092      0.00000
     84      46.6092      0.00000
     85      46.7318      0.00000
     86      46.7318      0.00000
     87      46.9383      0.00000
     88      46.9383      0.00000
     89      48.1953      0.00000
     90      48.1953      0.00000
     91      49.0247      0.00000
     92      49.0248      0.00000
     93      50.9076      0.00000
     94      50.9076      0.00000
     95      51.3958      0.00000
     96      51.3970      0.00000

 k-point    34 :       0.5000    0.5000    0.3750
  band No.  band energies     occupation
      1     -37.1715      2.00000
      2     -37.1715      2.00000
      3     -37.1715      2.00000
      4     -37.1715      2.00000
      5     -37.1139      2.00000
      6     -37.1139      2.00000
      7     -37.1139      2.00000
      8     -37.1139      2.00000
      9     -37.1119      2.00000
     10     -37.1119      2.00000
     11     -37.1119      2.00000
     12     -37.1119      2.00000
     13     -13.3647      2.00000
     14     -13.3647      2.00000
     15     -13.3647      2.00000
     16     -13.3647      2.00000
     17      -1.7069      2.00000
     18      -1.7069      2.00000
     19      -1.7069      2.00000
     20      -1.7069      2.00000
     21       1.7555      2.00000
     22       1.7555      2.00000
     23       1.7555      2.00000
     24       1.7555      2.00000
     25       1.8958      2.00000
     26       1.8958      2.00000
     27       1.8958      2.00000
     28       1.8958      2.00000
     29      10.6834      0.00000
     30      10.6834      0.00000
     31      10.6834      0.00000
     32      10.6834      0.00000
     33      14.8459      0.00000
     34      14.8459      0.00000
     35      14.8459      0.00000
     36      14.8459      0.00000
     37      18.1859      0.00000
     38      18.1859      0.00000
     39      18.1859      0.00000
     40      18.1859      0.00000
     41      18.7624      0.00000
     42      18.7624      0.00000
     43      18.7624      0.00000
     44      18.7624      0.00000
     45      23.7257      0.00000
     46      23.7257      0.00000
     47      23.7257      0.00000
     48      23.7257      0.00000
     49      24.4485      0.00000
     50      24.4485      0.00000
     51      24.4485      0.00000
     52      24.4485      0.00000
     53      24.5386      0.00000
     54      24.5386      0.00000
     55      24.5386      0.00000
     56      24.5386      0.00000
     57      30.9969      0.00000
     58      30.9969      0.00000
     59      30.9969      0.00000
     60      30.9969      0.00000
     61      32.3110      0.00000
     62      32.3110      0.00000
     63      32.3110      0.00000
     64      32.3110      0.00000
     65      32.8202      0.00000
     66      32.8202      0.00000
     67      32.8202      0.00000
     68      32.8202      0.00000
     69      34.2680      0.00000
     70      34.2680      0.00000
     71      34.2680      0.00000
     72      34.2680      0.00000
     73      35.5859      0.00000
     74      35.5859      0.00000
     75      35.5859      0.00000
     76      35.5859      0.00000
     77      42.9245      0.00000
     78      42.9245      0.00000
     79      42.9245      0.00000
     80      42.9245      0.00000
     81      46.8675      0.00000
     82      46.8676      0.00000
     83      46.8677      0.00000
     84      46.8692      0.00000
     85      47.6634      0.00000
     86      47.6634      0.00000
     87      47.6634      0.00000
     88      47.6634      0.00000
     89      48.3189      0.00000
     90      48.3189      0.00000
     91      48.3189      0.00000
     92      48.3189      0.00000
     93      51.3591      0.00000
     94      51.3902      0.00000
     95      51.4178      0.00000
     96      51.8291      0.00000

 k-point    35 :       0.5000    0.5000    0.5000
  band No.  band energies     occupation
      1     -37.1738      2.00000
      2     -37.1738      2.00000
      3     -37.1738      2.00000
      4     -37.1738      2.00000
      5     -37.1121      2.00000
      6     -37.1121      2.00000
      7     -37.1121      2.00000
      8     -37.1121      2.00000
      9     -37.1121      2.00000
     10     -37.1121      2.00000
     11     -37.1121      2.00000
     12     -37.1121      2.00000
     13     -13.3541      2.00000
     14     -13.3541      2.00000
     15     -13.3541      2.00000
     16     -13.3541      2.00000
     17      -1.8162      2.00000
     18      -1.8162      2.00000
     19      -1.8162      2.00000
     20      -1.8162      2.00000
     21       1.8958      2.00000
     22       1.8958      2.00000
     23       1.8958      2.00000
     24       1.8958      2.00000
     25       1.8958      2.00000
     26       1.8958      2.00000
     27       1.8958      2.00000
     28       1.8958      2.00000
     29      10.5159      0.00000
     30      10.5159      0.00000
     31      10.5159      0.00000
     32      10.5159      0.00000
     33      14.8987      0.00000
     34      14.8987      0.00000
     35      14.8987      0.00000
     36      14.8987      0.00000
     37      18.6463      0.00000
     38      18.6463      0.00000
     39      18.6463      0.00000
     40      18.6463      0.00000
     41      18.6463      0.00000
     42      18.6463      0.00000
     43      18.6463      0.00000
     44      18.6463      0.00000
     45      23.1120      0.00000
     46      23.1120      0.00000
     47      23.1120      0.00000
     48      23.1120      0.00000
     49      24.7780      0.00000
     50      24.7780      0.00000
     51      24.7780      0.00000
     52      24.7780      0.00000
     53      24.7780      0.00000
     54      24.7780      0.00000
     55      24.7780      0.00000
     56      24.7780      0.00000
     57      30.5196      0.00000
     58      30.5196      0.00000
     59      30.5196      0.00000
     60      30.5196      0.00000
     61      32.7496      0.00000
     62      32.7496      0.00000
     63      32.7496      0.00000
     64      32.7496      0.00000
     65      32.7496      0.00000
     66      32.7496      0.00000
     67      32.7496      0.00000
     68      32.7496      0.00000
     69      34.5260      0.00000
     70      34.5260      0.00000
     71      34.5260      0.00000
     72      34.5260      0.00000
     73      34.5260      0.00000
     74      34.5260      0.00000
     75      34.5260      0.00000
     76      34.5260      0.00000
     77      44.2744      0.00000
     78      44.2744      0.00000
     79      44.2744      0.00000
     80      44.2744      0.00000
     81      45.9663      0.00000
     82      45.9663      0.00000
     83      45.9663      0.00000
     84      45.9663      0.00000
     85      48.5022      0.00000
     86      48.5022      0.00000
     87      48.5022      0.00000
     88      48.5022      0.00000
     89      48.5022      0.00000
     90      48.5022      0.00000
     91      48.5022      0.00000
     92      48.5022      0.00000
     93      51.7788      0.00000
     94      51.8225      0.00000
     95      51.8936      0.00000
     96      51.9091      0.00000


--------------------------------------------------------------------------------------------------------


 soft charge-density along one line, spin component           1
         0         1         2         3         4         5         6         7         8         9
 total charge-density along one line

 pseudopotential strength for first ion, spin component:           1
-48.765   0.000   0.000   5.892  -0.000  -0.000   0.000  -0.000
  0.000 -48.765   0.000  -0.000   5.892  -0.000   0.000  -0.000
  0.000   0.000 -48.765  -0.000  -0.000   5.892   0.000  -0.000
  5.892  -0.000  -0.000   4.761  -0.000   0.000   0.000  -0.000
 -0.000   5.892  -0.000  -0.000   4.761   0.000   0.000  -0.000
 -0.000  -0.000   5.892   0.000   0.000   4.761   0.000  -0.000
  0.000   0.000   0.000   0.000   0.000   0.000   2.977 -10.863
 -0.000  -0.000  -0.000  -0.000  -0.000  -0.000 -10.863  45.126
 -0.000   0.000  -0.000   0.000  -0.000   0.000  -0.000   0.000
 -0.000  -0.000   0.000   0.000   0.000  -0.000  -0.000  -0.000
  0.000  -0.000   0.000  -0.000   0.000  -0.000   0.000  -0.000
  0.000  -0.000  -0.000  -0.000   0.000   0.000  -0.000   0.000
  0.000  -0.000  -0.000  -0.000   0.000  -0.000  -0.000   0.000
 total augmentation occupancy for first ion, spin component:           1
  2.000  -0.000   0.000  -0.009   0.000  -0.000   0.000  -0.000   0.000   0.000   0.000   0.000   0.000
  0.000   2.000   0.000  -0.000  -0.009  -0.000   0.000  -0.000   0.000   0.000  -0.000   0.000   0.000
  0.000  -0.000   2.000   0.000   0.000  -0.009  -0.000   0.000  -0.000   0.000   0.000   0.000   0.000
 -0.009   0.000   0.000   0.070   0.000   0.000   0.000   0.000   0.000   0.000  -0.000   0.000  -0.000
  0.000  -0.009  -0.000   0.000   0.070   0.000   0.000   0.000  -0.000   0.000   0.000   0.000   0.000
  0.000  -0.000  -0.009   0.000   0.000   0.070   0.000  -0.000   0.000   0.000   0.000   0.000   0.000
  0.000   0.000   0.000  -0.000   0.000   0.000   0.802   0.012   0.000  -0.000  -0.000  -0.000  -0.000
 -0.000   0.000   0.000   0.000  -0.000   0.000   0.012   0.000   0.000   0.000  -0.000   0.000  -0.000
 -0.000   0.000   0.000   0.000   0.000   0.000   0.000   0.000   0.011   0.000   0.000   0.000  -0.000
 -0.000   0.000   0.000   0.000  -0.000  -0.000  -0.000   0.000  -0.000   0.011  -0.000   0.000   0.000
 -0.000   0.000   0.000   0.000  -0.000   0.000  -0.000  -0.000  -0.000  -0.000   0.047  -0.000   0.000
  0.000   0.000   0.000   0.000   0.000   0.000   0.000  -0.000  -0.000   0.000  -0.000   0.011  -0.000
  0.000  -0.000   0.000   0.000   0.000  -0.000   0.000  -0.000  -0.000   0.000  -0.000  -0.000   0.047


------------------------ aborting loop because EDIFF is reached ----------------------------------------


    FORLOC:  cpu time      0.0004: real time      0.0004
    FORNL :  cpu time      0.0076: real time      0.0077
    STRESS:  cpu time      0.0782: real time      0.0782
    FORCOR:  cpu time      0.5814: real time      0.5815
    OFIELD:  cpu time      0.0000: real time      0.0000

  FORCE on cell =-STRESS in cart. coord.  units (eV):
  Direction    XX          YY          ZZ          XY          YZ          ZX
  --------------------------------------------------------------------------------------
  Alpha Z   266.39917   266.39917   266.39917
  Ewald   -1265.06485 -1265.06485 -1265.06485    -0.00000     0.00000     0.00000
  Hartree   418.98366   418.98366   418.98366    -0.00000    -0.00000    -0.00000
  E(xc)    -315.77463  -315.77463  -315.77463    -0.00000    -0.00000     0.00000
  Local     195.29239   195.29239   195.29239    -0.00000    -0.00000    -0.00000
  n-local  -352.02777  -353.54184  -353.49924     0.17575     0.15627     0.09805
  augment   134.38707   134.38707   134.38707    -0.00000     0.00000    -0.00000
  Kinetic   912.11957   920.66351   923.55018    -2.77187    -2.68239    -1.66086
  Fock        0.00000     0.00000     0.00000     0.00000     0.00000     0.00000
  -------------------------------------------------------------------------------------
  Total      -0.02239    -0.02239    -0.02239     0.00000    -0.00000     0.00000
  in kB      -0.45987    -0.45987    -0.45987     0.00000    -0.00000     0.00000
  external pressure =       -0.46 kB  Pullay stress =        0.00 kB


 VOLUME and BASIS-vectors are now :
 -----------------------------------------------------------------------------
  energy-cutoff  :      600.00
  volume of cell :       78.02
      direct lattice vectors                 reciprocal lattice vectors
     4.273056813 -0.000000000  0.000000000     0.234024504  0.000000000  0.000000000
    -0.000000000  4.273056813  0.000000000     0.000000000  0.234024504  0.000000000
     0.000000000 -0.000000000  4.273056813    -0.000000000 -0.000000000  0.234024504

  length of vectors
     4.273056813  4.273056813  4.273056813     0.234024504  0.234024504  0.234024504


 FORCES acting on ions:
    Electron-Ion                     Ewald-Force                    Non-Local-Force
 -----------------------------------------------------------------------------------------------
   -.351E-13 -.309E-13 -.310E-13   -.935E-14 -.155E-13 -.870E-14   0.000E+00 -.103E-24 -.268E-25
   -.348E-13 0.402E-12 0.399E-12   -.991E-14 0.128E-14 0.135E-14   0.620E-24 -.775E-24 -.535E-24
   0.406E-12 -.347E-13 0.293E-11   0.451E-14 -.136E-13 0.143E-14   0.414E-24 0.000E+00 0.206E-24
   0.402E-12 0.964E-12 -.356E-12   0.395E-14 0.321E-14 -.347E-14   -.124E-23 -.827E-24 -.868E-24
   0.182E-12 -.254E-13 -.159E-11   0.284E-14 0.316E-14 0.122E-14   0.517E-25 0.129E-24 0.214E-24
   0.179E-12 0.137E-12 0.728E-12   0.256E-14 0.852E-14 0.506E-14   0.388E-25 -.969E-26 -.121E-24
   -.232E-13 -.185E-13 0.172E-12   0.259E-14 0.339E-14 0.506E-14   -.103E-24 0.103E-24 0.206E-26
   -.231E-13 0.179E-12 -.170E-13   0.231E-14 0.875E-14 -.232E-14   0.155E-24 0.000E+00 -.282E-24
 -----------------------------------------------------------------------------------------------
   0.107E-11 0.160E-11 0.229E-11   -.500E-15 -.788E-15 -.375E-15   -.646E-25 -.148E-23 -.141E-23


 POSITION                                       TOTAL-FORCE (eV/Angst)
 -----------------------------------------------------------------------------------
      0.00000      0.00000      0.00000         0.000000     -0.000000     -0.000000
      0.00000      2.13653      2.13653         0.000000     -0.000000      0.000000
      2.13653      0.00000      2.13653         0.000000     -0.000000     -0.000000
      2.13653      2.13653      0.00000        -0.000000      0.000000     -0.000000
      2.13653      0.00000      0.00000        -0.000000      0.000000      0.000000
      2.13653      2.13653      2.13653         0.000000      0.000000      0.000000
      0.00000      0.00000      2.13653        -0.000000     -0.000000      0.000000
      0.00000      2.13653      0.00000        -0.000000     -0.000000      0.000000
 -----------------------------------------------------------------------------------
    total drift:                                0.000000      0.000000      0.000000


--------------------------------------------------------------------------------------------------------



  FREE ENERGIE OF THE ION-ELECTRON SYSTEM (eV)
  ---------------------------------------------------
  free  energy   TOTEN  =       -29.51443715 eV

  energy  without entropy=      -29.51443715  energy(sigma->0) =      -29.51443715



--------------------------------------------------------------------------------------------------------


    POTLOK:  cpu time      0.5343: real time      0.5345


--------------------------------------------------------------------------------------------------------




--------------------------------------------------------------------------------------------------------



 reached required accuracy - stopping structural energy minimisation
     LOOP+:  cpu time     73.8673: real time     74.0060
    4ORBIT:  cpu time      0.0000: real time      0.0000

 total amount of memory used by VASP MPI-rank0    37050. kBytes
=======================================================================

   base      :      30000. kBytes
   nonl-proj :       4978. kBytes
   fftplans  :        364. kBytes
   grid      :        402. kBytes
   one-center:         16. kBytes
   wavefun   :       1290. kBytes



 General timing and accounting informations for this job:
 ========================================================

                  Total CPU time used (sec):       84.148
                            User time (sec):       83.247
                          System time (sec):        0.900
                         Elapsed time (sec):       89.107

                   Maximum memory used (kb):      216852.
                   Average memory used (kb):          N/A

                          Minor page faults:        29619
                          Major page faults:            0
                 Voluntary context switches:         9406
