
                                 *****************
                                 * O   R   C   A *
                                 *****************

                                            #,
                                            ###
                                            ####
                                            #####
                                            ######
                                           ########,
                                     ,,################,,,,,
                               ,,#################################,,
                          ,,##########################################,,
                       ,#########################################, ''#####,
                    ,#############################################,,   '####,
                  ,##################################################,,,,####,
                ,###########''''           ''''###############################
              ,#####''   ,,,,##########,,,,          '''####'''          '####
            ,##' ,,,,###########################,,,                        '##
           ' ,,###''''                  '''############,,,
         ,,##''                                '''############,,,,        ,,,,,,###''
      ,#''                                            '''#######################'''
     '                                                          ''''####''''
             ,#######,   #######,   ,#######,      ##
            ,#'     '#,  ##    ##  ,#'     '#,    #''#        ,####,   ,####,
            ##       ##  ##   ,#'  ##            #'  '#       #'       #'  '#
            ##       ##  #######   ##           ,######,      #####,   #    #
            '#,     ,#'  ##    ##  '#,     ,#' ,#      #,     #,   #   #,  ,#
             '#######'   ##     ##  '#######'  #'      '#     '####' # '####'



                #########################################################
                #                        -***-                          #
                #          Department of theory and spectroscopy        #
                #                                                       #
                #                      Frank Neese                      #
                #                                                       #
                #     Directorship, Architecture, Infrastructure        #
                #                    SHARK, DRIVERS                     #
                #        Core code/Algorithms in most modules           #
                #                                                       #
                #        Max Planck Institute fuer Kohlenforschung      #
                #                Kaiser Wilhelm Platz 1                 #
                #                 D-45470 Muelheim/Ruhr                 #
                #                      Germany                          #
                #                                                       #
                #                  All rights reserved                  #
                #                        -***-                          #
                #########################################################


                         Program Version 6.0.0  -   RELEASE  -


 With contributions from (in alphabetic order):
   Daniel Aravena         : Magnetic Suceptibility
   Michael Atanasov       : Ab Initio Ligand Field Theory (pilot matlab implementation)
   Alexander A. Auer      : GIAO ZORA, VPT2 properties, NMR spectrum
   Ute Becker             : All parallelization in ORCA, NUMFREQ, NUMCALC
   Giovanni Bistoni       : ED, misc. LED, open-shell LED, HFLD
   Martin Brehm           : Molecular dynamics
   Dmytro Bykov           : pre 5.0 version of the SCF Hessian
   Marcos Casanova-Páez   : Triplet and SCS-CIS(D). UHF-(DLPNO)-IP/EA/STEOM-CCSD. UHF-CVS-IP/STEOM-CCSD
   Vijay G. Chilkuri      : MRCI spin determinant printing, contributions to CSF-ICE
   Pauline Colinet        : FMM embedding
   Dipayan Datta          : RHF DLPNO-CCSD density
   Achintya Kumar Dutta   : EOM-CC, STEOM-CC
   Nicolas Foglia         : Exact transition moments, OPA infrastructure, MCD improvements
   Dmitry Ganyushin       : Spin-Orbit,Spin-Spin,Magnetic field MRCI
   Miquel Garcia          : C-PCM and meta-GGA Hessian, CCSD/C-PCM, Gaussian charge scheme
   Tiago L. C. Gouveia    : GS-ROHF, GS-ROCIS
   Yang Guo               : DLPNO-NEVPT2, F12-NEVPT2, CIM, IAO-localization
   Andreas Hansen         : Spin unrestricted coupled pair/coupled cluster methods
   Ingolf Harden          : AUTO-CI MPn and infrastructure
   Benjamin Helmich-Paris : MC-RPA, TRAH-(SCF,CASSCF), AVAS, COSX integrals, SCF dyn. polar.
   Lee Huntington         : MR-EOM, pCC
   Robert Izsak           : Overlap fitted RIJCOSX, COSX-SCS-MP3, EOM
   Riya Kayal             : Wick's Theorem for AUTO-CI, AUTO-CI UHF-CCSDT
   Emily Kempfer          : AUTO-CI, RHF CISDT and CCSDT
   Christian Kollmar      : KDIIS, OOCD, Brueckner-CCSD(T), CCSD density, CASPT2, CASPT2-K, improved NEVPT2
   Axel Koslowski         : Symmetry handling
   Simone Kossmann        : Meta GGA functionals, TD-DFT gradient, OOMP2, (MP2 Hessian; deprecated post 5.0)
   Lucas Lang             : DCDCAS
   Marvin Lechner         : AUTO-CI (C++ implementation), FIC-MRCC
   Spencer Leger          : CASSCF response
   Dagmar Lenk            : GEPOL surface, SMD, ORCA-2-JSON
   Dimitrios Liakos       : Extrapolation schemes; Compound Job, initial MDCI parallelization
   Dimitrios Manganas     : Further ROCIS development; embedding schemes. LFT, Crystal Embedding
   Dimitrios Pantazis     : SARC Basis sets
   Anastasios Papadopoulos: AUTO-CI, single reference methods and gradients
   Taras Petrenko         : pre 6.0 DFT Hessian and TD-DFT gradient, (ASA, deprecated), ECA, 1-Electron XAS/XES, NRVS
   Peter Pinski           : DLPNO-MP2, DLPNO-MP2 Gradient
   Christoph Reimann      : Effective Core Potentials
   Marius Retegan         : Local ZFS, SOC
   Christoph Riplinger    : Optimizer, TS searches, QM/MM, DLPNO-CCSD(T), (RO)-DLPNO pert. Triples
   Michael Roemelt        : Original ROCIS implementation
   Masaaki Saitow         : Open-shell DLPNO-CCSD energy and density
   Barbara Sandhoefer     : DKH picture change effects
   Kantharuban Sivalingam : CASSCF convergence/infrastructure, NEVPT2 and variants, FIC-MRCI
   Bernardo de Souza      : ESD, SOC TD-DFT
   Georgi Stoychev        : AutoAux, RI-MP2 NMR, DLPNO-MP2 response, X2C
   Van Anh Tran           : RI-MP2 g-tensors
   Willem Van den Heuvel  : Paramagnetic NMR
   Zikuan Wang            : NOTCH, Electric field optimization
   Frank Wennmohs         : Technical directorship and infrastructure
   Hang Xu                : AUTO-CI-Response properties


 We gratefully acknowledge several colleagues who have allowed us to
 interface, adapt or use parts of their codes:
   Stefan Grimme, W. Hujo, H. Kruse, P. Pracht,  : VdW corrections, initial TS optimization,
                  C. Bannwarth, S. Ehlert,         DFT functionals, gCP, sTDA/sTD-DF
                  L. Wittmann, M. Mueller
   Ed Valeev, F. Pavosevic, A. Kumar             : LibInt (2-el integral package), F12 methods
   Garnet Chan, S. Sharma, J. Yang, R. Olivares  : DMRG
   Ulf Ekstrom                                   : XCFun DFT Library
   Mihaly Kallay                                 : mrcc  (arbitrary order and MRCC methods)
   Frank Weinhold                                : gennbo (NPA and NBO analysis)
   Simon Mueller                                 : openCOSMO-RS
   Christopher J. Cramer and Donald G. Truhlar   : smd solvation model
   Lars Goerigk                                  : TD-DFT with DH, B97 family of functionals
   V. Asgeirsson, H. Jonsson                     : NEB implementation
   FAccTs GmbH                                   : IRC, NEB, NEB-TS, DLPNO-Multilevel, CI-OPT
                                                   MM, QMMM, 2- and 3-layer-ONIOM, Crystal-QMMM,
                                                   LR-CPCM, SF, NACMEs, symmetry and pop. for TD-DFT,
                                                   nearIR, NL-DFT gradient (VV10), updates on ESD,
                                                   ML-optimized integration grids, MBIS, APM,
                                                   GOAT, DOCKER, SOLVATOR, interface openCOSMO-RS
   S Lehtola, MJT Oliveira, MAL Marques          : LibXC Library
   Liviu Ungur et al                             : ANISO software


 Your calculation uses the libint2 library for the computation of 2-el integrals
 For citations please refer to: http://libint.valeyev.net

 Your ORCA version has been built with support for libXC version: 6.2.2
 For citations please refer to: https://libxc.gitlab.io

 This ORCA versions uses:
   CBLAS   interface :  Fast vector & matrix operations
   LAPACKE interface :  Fast linear algebra routines
   SCALAPACK package :  Parallel linear algebra routines
   Shared memory     :  Shared parallel matrices
   BLAS/LAPACK       :  OpenBLAS 0.3.27  USE64BITINT DYNAMIC_ARCH NO_AFFINITY Haswell SINGLE_THREADED
        Core in use  :  Haswell
   Copyright (c) 2011-2014, The OpenBLAS Project


NOTE: MaxCore=25000 MB was set to SCF,MP2,MDCI,CIPSI,MRCI and CIS
      => If you want to overwrite this, your respective input block should be placed after the MaxCore statement
Setting NCore(C ) from 2 to 2
Setting NCore(Mg) from 2 to 10
Setting NCore(O ) from 2 to 2
SCAN-COORDS
================================================================================

----- Orbital basis set information -----
Your calculation utilizes the basis: def2-SVP
   F. Weigend and R. Ahlrichs, Phys. Chem. Chem. Phys. 7, 3297 (2005).

The basis set includes element-specific modifications.

Your calculation utilizes the basis: aug-cc-pVTZ
    H, B-Ne : Obtained from the ccRepo (grant-hill.group.shef.ac.uk/ccrepo) Feb. 2017
              R. A. Kendall, T. H. Dunning, Jr., R. J. Harrison, J. Chem. Phys. 96, 6796 (1992)
         He : Obtained from the ccRepo (grant-hill.group.shef.ac.uk/ccrepo) Feb. 2017
              D. E. Woon, T. H. Dunning, Jr., J. Chem. Phys. 100, 2975 (1994)
  Li-Be, Na : Obtained from the ccRepo (grant-hill.group.shef.ac.uk/ccrepo) Feb. 2017
              B. P. Prascher, D. E. Woon, K. A. Peterson, T. H. Dunning, Jr., A. K. Wilson, Theor. Chem. Acc. 128, 69 (2011)
         Mg : Obtained from the Peterson Research Group Website (tyr0.chem.wsu.edu/~kipeters) Feb. 2017
              B. P. Prascher, D. E. Woon, K. A. Peterson, T. H. Dunning, Jr., A. K. Wilson, Theor. Chem. Acc. 128, 69 (2011)
      Al-Ar : Obtained from the ccRepo (grant-hill.group.shef.ac.uk/ccrepo) Feb. 2017
              D. E. Woon, T. H. Dunning, Jr., J. Chem. Phys. 98, 1358 (1993)
      Sc-Zn : Obtained from the ccRepo (grant-hill.group.shef.ac.uk/ccrepo) Feb. 2017
              N. B. Balabanov, K. A. Peterson, J. Chem. Phys. 123, 064107 (2005)
              N. B. Balabanov, K. A. Peterson, J. Chem. Phys. 125, 074110 (2006)
      Ga-Kr : Obtained from the ccRepo (grant-hill.group.shef.ac.uk/ccrepo) Feb. 2017
              A. K. Wilson, D. E. Woon, K. A. Peterson, T. H. Dunning, Jr., J. Chem. Phys. 110, 7667 (1999)
     Ag, Au : Obtained from the Peterson Research Group Website (tyr0.chem.wsu.edu/~kipeters) Feb. 2017
              K. A. Peterson, C. Puzzarini, Theor. Chem. Acc. 114, 283 (2005)

Your calculation utilizes the basis: cc-pVTZ
       H, B-Ne : Obtained from the ccRepo (grant-hill.group.shef.ac.uk/ccrepo) Feb. 2017
                 T. H. Dunning, Jr., J. Chem. Phys. 90, 1007 (1989)
            He : Obtained from the ccRepo (grant-hill.group.shef.ac.uk/ccrepo) Feb. 2017
                 D. E. Woon, T. H. Dunning, Jr., J. Chem. Phys. 100, 2975 (1994)
  Li-Be, Na-Mg : Obtained from the ccRepo (grant-hill.group.shef.ac.uk/ccrepo) Feb. 2017
                 B. P. Prascher, D. E. Woon, K. A. Peterson, T. H. Dunning, Jr., A. K. Wilson, Theor. Chem. Acc. 128, 69 (2011)
         Al-Ar : Obtained from the ccRepo (grant-hill.group.shef.ac.uk/ccrepo) Feb. 2017
                 D. E. Woon, T. H. Dunning, Jr., J. Chem. Phys. 98, 1358 (1993)
            Ca : Obtained from the Peterson Research Group Website (tyr0.chem.wsu.edu/~kipeters) Feb. 2017
                 J. Koput, K. A. Peterson, J. Phys. Chem. 106, 9595 (2002)
         Sc-Zn : Obtained from the ccRepo (grant-hill.group.shef.ac.uk/ccrepo) Feb. 2017
                 N. B. Balabanov, K. A. Peterson, J. Chem. Phys. 123, 064107 (2005)
                 N. B. Balabanov, K. A. Peterson, J. Chem. Phys. 125, 074110 (2006)
         Ga-Kr : Obtained from the ccRepo (grant-hill.group.shef.ac.uk/ccrepo) Feb. 2017
                 A. K. Wilson, D. E. Woon, K. A. Peterson, T. H. Dunning, Jr., J. Chem. Phys. 110, 7667 (1999)
             Y : Obtained from the ccRepo (grant-hill.group.shef.ac.uk/ccrepo) Feb. 2017
                 K. A. Peterson, D. Figgen, M. Dolg, H. Stoll, J. Chem. Phys. 126, 124101 (2007)
        Ag, Au : Obtained from the Peterson Research Group Website (tyr0.chem.wsu.edu/~kipeters) Feb. 2017
                 K. A. Peterson, C. Puzzarini, Theor. Chem. Acc. 114, 283 (2005)

----- AuxJ basis set information -----
Your calculation utilizes the auxiliary basis: def2/J
   F. Weigend, Phys. Chem. Chem. Phys. 8, 1057 (2006).

----- AuxC basis set information -----
The basis set includes element-specific modifications.

Your calculation utilizes the auxiliary basis: aug-cc-pVTZ/C
  H-He, B-F, Al-Ar, Ga-Kr : Obtained from the EMSL Basis Set Exchange (bse.pnl.gov) Feb. 2017
                            F. Weigend, A. Kohn, C. Hattig, J. Chem. Phys. 116, 3175 (2002)
                   Be, Mg : Obtained from the TURBOMOLE 7.0 basis set library
                            C. Haettig, Phys. Chem. Chem. Phys. 7, 59 (2005)
                       Ne : Obtained from the EMSL Basis Set Exchange (bse.pnl.gov) Feb. 2017
                            C. Haettig, Phys. Chem. Chem. Phys. 7, 59 (2005)
                            F. Weigend, A. Kohn, C. Hattig, J. Chem. Phys. 116, 3175 (2002)
                    Sc-Zn : Obtained from the EMSL Basis Set Exchange (bse.pnl.gov) Feb. 2017
                            J. G. Hill, J. A. Platts, J. Chem. Phys. 128, 044104 (2008)

Your calculation utilizes the auxiliary basis: cc-pVTZ/C
  Obtained from the EMSL Basis Set Exchange (bse.pnl.gov) Feb. 2017
  H-He, B-F, Al-Ar, Ga-Kr : F. Weigend, A. Kohn, C. Hattig, J. Chem. Phys. 116, 3175 (2002)
             Li-Be, Na-Mg : C. Haettig, Phys. Chem. Chem. Phys. 7, 59 (2005)
                       Ne : C. Haettig, Phys. Chem. Chem. Phys. 7, 59 (2005)
                            F. Weigend, A. Kohn, C. Hattig, J. Chem. Phys. 116, 3175 (2002)
                    Sc-Zn : J. G. Hill, J. A. Platts, J. Chem. Phys. 128, 044104 (2008)

================================================================================
                                        WARNINGS
                       Please study these warnings very carefully!
================================================================================

WARNING: Old DensityContainer found on disk!
         Will remove this file -
         If you want to keep old densities, please start your calculation with a different basename.


WARNING: No MP2 level density has been requested!
         To calculate MP2 level properties use
         %mp2 Density relaxed end
         or
         %mp2 Density unrelaxed end

WARNING: Post HF methods need fully converged wavefunctions
  ===> : Setting SCFConvForced true
         You can overwrite this default with %scf ConvForced false


================================================================================
                                       INPUT FILE
================================================================================
NAME = orca.inp
|  1> ! TightSCF RI-MP2 RIJCOSX SlowConv DIIS
|  2> %pal nprocs 8 end
|  3> %maxcore 25000
|  4> %method
|  5> Method hf
|  6> RI on
|  7> RunTyp Energy
|  8> NewNCore C 2 end
|  9> NewNCore Mg 10 end
| 10> NewNCore O 2 end
| 11> end
| 12> %basis
| 13> NewGTO C "aug-cc-pVTZ" end
| 14> NewGTO Mg "cc-pVTZ" end
| 15> NewGTO O "aug-cc-pVTZ" end
| 16> Aux "def2/J"
| 17> NewAuxCGTO C "aug-cc-pVTZ/C" end
| 18> NewAuxCGTO Mg "cc-pVTZ/C" end
| 19> NewAuxCGTO O "aug-cc-pVTZ/C" end
| 20> end
| 21> %scf
| 22> HFTyp rhf
| 23> SCFMode Direct
| 24> sthresh 1e-6
| 25> AutoTRAHIter 60
| 26> MaxIter 1000
| 27> end
| 28> %coords
| 29> CTyp xyz
| 30> Mult 1
| 31> Units angs
| 32> Charge 0
| 33> coords
| 34> C                       0.00000000000    0.00000000000    2.44102235837
| 35> O                       0.00000000000    0.00000000000    3.58784217303
| 36> Mg:                     0.00000000000    0.00000000000    0.00000000000
| 37> O:                     -2.12018425659    0.00000000000    0.00567209089
| 38> O:                      0.00000000000    2.12018425659    0.00567209089
| 39> O:                      2.12018425659    0.00000000000    0.00567209089
| 40> O:                      0.00000000000   -2.12018425659    0.00567209089
| 41> O:                      0.00000000000    0.00000000000   -2.14129966123
| 42> Mg:                    -2.11144262254    2.11144262254   -0.04367284424
| 43> Mg:                     2.11144262254    2.11144262254   -0.04367284424
| 44> Mg:                     2.11144262254   -2.11144262254   -0.04367284424
| 45> Mg:                    -2.11144262254   -2.11144262254   -0.04367284424
| 46> O:                     -2.11070451449    2.11070451449   -2.14923989662
| 47> O:                      2.11070451449    2.11070451449   -2.14923989662
| 48> O:                      2.11070451449   -2.11070451449   -2.14923989662
| 49> O:                     -2.11070451449   -2.11070451449   -2.14923989662
| 50> O:                     -4.22049352791    2.11209139723    0.00772802266
| 51> O:                     -2.11209139723    4.22049352791    0.00772802266
| 52> O:                      2.11209139723    4.22049352791    0.00772802266
| 53> O:                      4.22049352791    2.11209139723    0.00772802266
| 54> O:                      4.22049352791   -2.11209139723    0.00772802266
| 55> O:                      2.11209139723   -4.22049352791    0.00772802266
| 56> O:                     -2.11209139723   -4.22049352791    0.00772802266
| 57> O:                     -4.22049352791   -2.11209139723    0.00772802266
| 58> end
| 59> end
| 60>
| 61>
| 62>                          ****END OF INPUT****
================================================================================

                       ****************************
                       * Single Point Calculation *
                       ****************************

---------------------------------
CARTESIAN COORDINATES (ANGSTROEM)
---------------------------------
  C      0.000000    0.000000    2.441022
  O      0.000000    0.000000    3.587842
  Mg     0.000000    0.000000    0.000000
  O     -2.120184    0.000000    0.005672
  O      0.000000    2.120184    0.005672
  O      2.120184    0.000000    0.005672
  O      0.000000   -2.120184    0.005672
  O      0.000000    0.000000   -2.141300
  Mg    -2.111443    2.111443   -0.043673
  Mg     2.111443    2.111443   -0.043673
  Mg     2.111443   -2.111443   -0.043673
  Mg    -2.111443   -2.111443   -0.043673
  O     -2.110705    2.110705   -2.149240
  O      2.110705    2.110705   -2.149240
  O      2.110705   -2.110705   -2.149240
  O     -2.110705   -2.110705   -2.149240
  O     -4.220494    2.112091    0.007728
  O     -2.112091    4.220494    0.007728
  O      2.112091    4.220494    0.007728
  O      4.220494    2.112091    0.007728
  O      4.220494   -2.112091    0.007728
  O      2.112091   -4.220494    0.007728
  O     -2.112091   -4.220494    0.007728
  O     -4.220494   -2.112091    0.007728

----------------------------
CARTESIAN COORDINATES (A.U.)
----------------------------
  NO LB      ZA    FRAG     MASS         X           Y           Z
   0 C     6.0000    0    12.011    0.000000    0.000000    4.612864
   1 O     8.0000    0    15.999    0.000000    0.000000    6.780039
   2 Mg    0.0000    0     0.000    0.000000    0.000000    0.000000
   3 O     0.0000    0     0.000   -4.006568    0.000000    0.010719
   4 O     0.0000    0     0.000    0.000000    4.006568    0.010719
   5 O     0.0000    0     0.000    4.006568    0.000000    0.010719
   6 O     0.0000    0     0.000    0.000000   -4.006568    0.010719
   7 O     0.0000    0     0.000    0.000000    0.000000   -4.046470
   8 Mg    0.0000    0     0.000   -3.990048    3.990048   -0.082530
   9 Mg    0.0000    0     0.000    3.990048    3.990048   -0.082530
  10 Mg    0.0000    0     0.000    3.990048   -3.990048   -0.082530
  11 Mg    0.0000    0     0.000   -3.990048   -3.990048   -0.082530
  12 O     0.0000    0     0.000   -3.988653    3.988653   -4.061475
  13 O     0.0000    0     0.000    3.988653    3.988653   -4.061475
  14 O     0.0000    0     0.000    3.988653   -3.988653   -4.061475
  15 O     0.0000    0     0.000   -3.988653   -3.988653   -4.061475
  16 O     0.0000    0     0.000   -7.975577    3.991274    0.014604
  17 O     0.0000    0     0.000   -3.991274    7.975577    0.014604
  18 O     0.0000    0     0.000    3.991274    7.975577    0.014604
  19 O     0.0000    0     0.000    7.975577    3.991274    0.014604
  20 O     0.0000    0     0.000    7.975577   -3.991274    0.014604
  21 O     0.0000    0     0.000    3.991274   -7.975577    0.014604
  22 O     0.0000    0     0.000   -3.991274   -7.975577    0.014604
  23 O     0.0000    0     0.000   -7.975577   -3.991274    0.014604

--------------------------------
INTERNAL COORDINATES (ANGSTROEM)
--------------------------------
 C      0   0   0     0.000000000000     0.00000000     0.00000000
 O      1   0   0     1.146819814660     0.00000000     0.00000000
 Mg     1   2   0     2.441022358370   179.99999915     0.00000000
 O      3   1   2     2.120191843798    89.84671800     0.00000000
 O      3   1   2     2.120191843798    89.84671800     0.00000000
 O      3   1   2     2.120191843798    89.84671800     0.00000000
 O      3   1   2     2.120191843798    89.84671800     0.00000000
 O      3   1   2     2.141299661230   179.99999852     0.00000000
 Mg     4   3   1     2.112037236193    89.75927407    91.33813376
 Mg     5   3   1     2.112037236193    89.75927407    91.33813376
 Mg     6   3   1     2.112037236193    89.75927407    91.33813376
 Mg     4   3   1     2.112037236193    89.75927407   268.66186624
 O      9   4   3     2.105567311124    91.31875951    89.83212722
 O     10   5   3     2.105567311124    91.31875951    89.83212722
 O     11   6   3     2.105567311124    91.31875951    89.83212722
 O     12   4   3     2.105567311124    91.31875951   270.16787278
 O      9   4   3     2.109677271876    89.74792452   181.24291387
 O      9   4   3     2.109677271876   177.25328254   264.52840758
 O     10   5   3     2.109677271876    89.74792452   181.24291387
 O     10   5   3     2.109677271876   177.25328254   264.52840758
 O     11   6   3     2.109677271876    89.74792452   181.24291387
 O     11   6   3     2.109677271876   177.25328254   264.52840758
 O     12   4   3     2.109677271876   177.25328254    95.47159242
 O     12   4   3     2.109677271876    89.74792452   178.75708613

---------------------------
INTERNAL COORDINATES (A.U.)
---------------------------
 C      0   0   0     0.000000000000     0.00000000     0.00000000
 O      1   0   0     2.167175374662     0.00000000     0.00000000
 Mg     1   2   0     4.612863744098   179.99999915     0.00000000
 O      3   1   2     4.006581936152    89.84671800     0.00000000
 O      3   1   2     4.006581936152    89.84671800     0.00000000
 O      3   1   2     4.006581936152    89.84671800     0.00000000
 O      3   1   2     4.006581936152    89.84671800     0.00000000
 O      3   1   2     4.046469930383   179.99999852     0.00000000
 Mg     4   3   1     3.991171961049    89.75927407    91.33813376
 Mg     5   3   1     3.991171961049    89.75927407    91.33813376
 Mg     6   3   1     3.991171961049    89.75927407    91.33813376
 Mg     4   3   1     3.991171961049    89.75927407   268.66186624
 O      9   4   3     3.978945574562    91.31875951    89.83212722
 O     10   5   3     3.978945574562    91.31875951    89.83212722
 O     11   6   3     3.978945574562    91.31875951    89.83212722
 O     12   4   3     3.978945574562    91.31875951   270.16787278
 O      9   4   3     3.986712274803    89.74792452   181.24291387
 O      9   4   3     3.986712274803   177.25328254   264.52840758
 O     10   5   3     3.986712274803    89.74792452   181.24291387
 O     10   5   3     3.986712274803   177.25328254   264.52840758
 O     11   6   3     3.986712274803    89.74792452   181.24291387
 O     11   6   3     3.986712274803   177.25328254   264.52840758
 O     12   4   3     3.986712274803   177.25328254    95.47159242
 O     12   4   3     3.986712274803    89.74792452   178.75708613

---------------------
BASIS SET INFORMATION
---------------------
There are 3 groups of distinct atoms

 Group   1 Type C   : 19s6p3d2f contracted to 5s4p3d2f pattern {88111/3111/111/11}
 Group   2 Type O   : 19s6p3d2f contracted to 5s4p3d2f pattern {88111/3111/111/11}
 Group   3 Type Mg  : 41s18p2d1f contracted to 5s4p2d1f pattern {13131311/8811/11/1}

Atom   0C    basis set group =>   1
Atom   1O    basis set group =>   2
Atom   2Mg   basis set group =>   3
Atom   3O    basis set group =>   2
Atom   4O    basis set group =>   2
Atom   5O    basis set group =>   2
Atom   6O    basis set group =>   2
Atom   7O    basis set group =>   2
Atom   8Mg   basis set group =>   3
Atom   9Mg   basis set group =>   3
Atom  10Mg   basis set group =>   3
Atom  11Mg   basis set group =>   3
Atom  12O    basis set group =>   2
Atom  13O    basis set group =>   2
Atom  14O    basis set group =>   2
Atom  15O    basis set group =>   2
Atom  16O    basis set group =>   2
Atom  17O    basis set group =>   2
Atom  18O    basis set group =>   2
Atom  19O    basis set group =>   2
Atom  20O    basis set group =>   2
Atom  21O    basis set group =>   2
Atom  22O    basis set group =>   2
Atom  23O    basis set group =>   2
---------------------------------
AUXILIARY/J BASIS SET INFORMATION
---------------------------------
There are 3 groups of distinct atoms

 Group   1 Type C   : 12s5p4d2f1g contracted to 6s4p3d1f1g pattern {711111/2111/211/2/1}
 Group   2 Type O   : 12s5p4d2f1g contracted to 6s4p3d1f1g pattern {711111/2111/211/2/1}
 Group   3 Type Mg  : 14s5p5d2f1g contracted to 8s4p4d1f1g pattern {71111111/2111/2111/2/1}

Atom   0C    basis set group =>   1
Atom   1O    basis set group =>   2
Atom   2Mg   basis set group =>   3
Atom   3O    basis set group =>   2
Atom   4O    basis set group =>   2
Atom   5O    basis set group =>   2
Atom   6O    basis set group =>   2
Atom   7O    basis set group =>   2
Atom   8Mg   basis set group =>   3
Atom   9Mg   basis set group =>   3
Atom  10Mg   basis set group =>   3
Atom  11Mg   basis set group =>   3
Atom  12O    basis set group =>   2
Atom  13O    basis set group =>   2
Atom  14O    basis set group =>   2
Atom  15O    basis set group =>   2
Atom  16O    basis set group =>   2
Atom  17O    basis set group =>   2
Atom  18O    basis set group =>   2
Atom  19O    basis set group =>   2
Atom  20O    basis set group =>   2
Atom  21O    basis set group =>   2
Atom  22O    basis set group =>   2
Atom  23O    basis set group =>   2
---------------------------------
AUXILIARY/C BASIS SET INFORMATION
---------------------------------
There are 3 groups of distinct atoms

 Group   1 Type C   : 9s7p6d4f2g contracted to 9s7p6d4f2g pattern {111111111/1111111/111111/1111/11}
 Group   2 Type O   : 9s7p6d4f2g contracted to 9s7p6d4f2g pattern {111111111/1111111/111111/1111/11}
 Group   3 Type Mg  : 10s8p7d5f2g contracted to 10s8p7d5f2g pattern {1111111111/11111111/1111111/11111/11}

Atom   0C    basis set group =>   1
Atom   1O    basis set group =>   2
Atom   2Mg   basis set group =>   3
Atom   3O    basis set group =>   2
Atom   4O    basis set group =>   2
Atom   5O    basis set group =>   2
Atom   6O    basis set group =>   2
Atom   7O    basis set group =>   2
Atom   8Mg   basis set group =>   3
Atom   9Mg   basis set group =>   3
Atom  10Mg   basis set group =>   3
Atom  11Mg   basis set group =>   3
Atom  12O    basis set group =>   2
Atom  13O    basis set group =>   2
Atom  14O    basis set group =>   2
Atom  15O    basis set group =>   2
Atom  16O    basis set group =>   2
Atom  17O    basis set group =>   2
Atom  18O    basis set group =>   2
Atom  19O    basis set group =>   2
Atom  20O    basis set group =>   2
Atom  21O    basis set group =>   2
Atom  22O    basis set group =>   2
Atom  23O    basis set group =>   2

Checking for AutoStart:
The File: orca.gbw exists
Trying to determine its content:
     ... Fine, the file contains calculation information
     ... Fine, the calculation information was read
     ... Fine, the file contains a basis set
     ... Fine, the basis set was read
     ... Fine, the file contains a geometry
     ... Fine, the geometry was read
     ... Fine, the file contains a set of orbitals
     ... Fine, the orbitals can be read
     => possible old guess file was deleted
     => GBW file was renamed to GES file
     => GES file is set as startup file
     => Guess is set to MORead
     ... now leaving AutoStart



           ************************************************************
           *        Program running with 8 parallel MPI-processes     *
           *              working on a common directory               *
           ************************************************************
------------------------------------------------------------------------------
                             ORCA STARTUP CALCULATIONS
                           -- RI-GTO INTEGRALS CHOSEN --
------------------------------------------------------------------------------
------------------------------------------------------------------------------
                   ___
                  /   \      - P O W E R E D   B Y -
                 /     \
                 |  |  |   _    _      __       _____    __    __
                 |  |  |  | |  | |    /  \     |  _  \  |  |  /  |
                  \  \/   | |  | |   /    \    | | | |  |  | /  /
                 / \  \   | |__| |  /  /\  \   | |_| |  |  |/  /
                |  |  |   |  __  | /  /__\  \  |    /   |      \
                |  |  |   | |  | | |   __   |  |    \   |  |\   \
                \     /   | |  | | |  |  |  |  | |\  \  |  | \   \
                 \___/    |_|  |_| |__|  |__|  |_| \__\ |__|  \__/

                      - O R C A' S   B I G   F R I E N D -
                                      &
                       - I N T E G R A L  F E E D E R -

 v1 FN, 2020, v2 2021, v3 2022-2024
------------------------------------------------------------------------------


----------------------
SHARK INTEGRAL PACKAGE
----------------------

Number of atoms                             ...     24
Number of basis functions                   ...   1298
Number of shells                            ...    520
Maximum angular momentum                    ...      3
Integral batch strategy                     ... SHARK/LIBINT Hybrid
RI-J (if used) integral strategy            ... SPLIT-RIJ (Revised 2003 algorithm where possible)
Printlevel                                  ...      1
Contraction scheme used                     ... PARTIAL GENERAL contraction
Prescreening option                         ... SCHWARTZ
   Thresh                                   ... 2.500e-11
   Tcut                                     ... 2.500e-12
   Tpresel                                  ... 2.500e-12
Coulomb Range Separation                    ... NOT USED
Exchange Range Separation                   ... NOT USED
Multipole approximations                    ... NOT USED
Finite Nucleus Model                        ... NOT USED
CABS basis                                  ... NOT available
Auxiliary Coulomb fitting basis             ... AVAILABLE
   # of basis functions in Aux-J            ...   1211
   # of shells in Aux-J                     ...    375
   Maximum angular momentum in Aux-J        ...      4
Auxiliary J/K fitting basis                 ... NOT available
Auxiliary Correlation fitting basis         ... AVAILABLE
   # of basis functions in Aux-C            ...   2624
   # of shells in Aux-C                     ...    692
   Maximum angular momentum in Aux-C        ...      4
Auxiliary 'external' fitting basis          ... NOT available

Checking pre-screening integrals            ... done (  0.0 sec) Dimension = 520
Save PGC pre-screening integrals            ... done (  0.0 sec) Dimension = 520
Calculate PGC overlap integrals             ... done (  0.1 sec) Dimension = 326
Calculating pre-screening integrals (ORCA)  ... done (  0.5 sec) Dimension = 326
Check shell pair data                       ... done (  0.0 sec)
Shell pair information
Shell pair cut-off parameter TPreSel        ...   2.5e-12
Total number of shell pairs                 ...    135460
Shell pairs after pre-screening             ...     71755
Total number of primitive shell pairs       ...    156018
Primitive shell pairs kept                  ...     77656
          la=0 lb=0:  14886 shell pairs
          la=1 lb=0:  20383 shell pairs
          la=1 lb=1:   5854 shell pairs
          la=2 lb=0:  10717 shell pairs
          la=2 lb=1:   6093 shell pairs
          la=2 lb=2:   1723 shell pairs
          la=3 lb=0:   5745 shell pairs
          la=3 lb=1:   3771 shell pairs
          la=3 lb=2:   2001 shell pairs
          la=3 lb=3:    582 shell pairs

Calculating one electron integrals          ... done (  0.1 sec)
Calculating RI/J V-Matrix + Cholesky decomp.... done (  0.1 sec)
Calculating RI/C V-Matrix + Cholesky decomp.... done (  0.4 sec)
Calculating Nuclear repulsion               ... done (  0.0 sec) ENN=     22.148645910806 Eh

Diagonalization of the overlap matrix:
Smallest eigenvalue                        ... 6.932e-06
Time for diagonalization                   ...    0.168 sec
Threshold for overlap eigenvalues          ... 1.000e-06
Number of eigenvalues below threshold      ... 0
Time for construction of square roots      ...    0.106 sec
Total time needed                          ...    0.282 sec

-------------------
DFT GRID GENERATION
-------------------

General Integration Accuracy     IntAcc      ... 4.388
Radial Grid Type                 RadialGrid  ... OptM3 with GC (2021)
Angular Grid (max. ang.)         AngularGrid ... 4 (Lebedev-302)
Angular grid pruning method      GridPruning ... 4 (adaptive)
Weight generation scheme         WeightScheme... mBecke (2022)
Basis function cutoff            BFCut       ... 1.0000e-11
Integration weight cutoff        WCut        ... 1.0000e-14
Partially contracted basis set               ... off
Rotationally invariant grid construction     ... off
Angular grids for H and He will be reduced by one unit
Diffuse basis detected: some atoms will have their outermost
                        angular grid increased by 1.

Total number of grid points                  ...   156677
Total number of batches                      ...     2460
Average number of points per batch           ...       63
Average number of grid points per atom       ...     6528

---------------------
SHARK GRID GENERATION
---------------------

General Integration Accuracy     IntAcc      ... 4.388
Radial Grid Type                 RadialGrid  ... OptM3 with GC (2021)
Angular Grid (max. ang.)         AngularGrid ... 4 (Lebedev-302)
Angular grid pruning method      GridPruning ... 4 (adaptive)
Weight generation scheme         WeightScheme... mBecke (2022)
Basis function cutoff            BFCut       ... 1.0000e-11
Integration weight cutoff        WCut        ... 1.0000e-14
Partially contracted basis set               ... off
Rotationally invariant grid construction     ... off
Angular grids for H and He will be reduced by one unit
Diffuse basis detected: some atoms will have their outermost
                        angular grid increased by 1.
Core-polarized basis detected: some atoms will have their core
                               angular grid increased.
Steep s-basis detected: some atoms will have their radial
                        grid points doubled.

Total number of grid points                  ...   337324
Total number of batches                      ...     5281
Average number of points per batch           ...       63
Average number of grid points per atom       ...    14055

--------------------
COSX GRID GENERATION
--------------------

GRIDX 1
-------
General Integration Accuracy     IntAcc      ... 3.816
Radial Grid Type                 RadialGrid  ... OptM3 with GC (2021)
Angular Grid (max. ang.)         AngularGrid ... 1 (Lebedev-50)
Angular grid pruning method      GridPruning ... 4 (adaptive)
Weight generation scheme         WeightScheme... mBecke (2022)
Basis function cutoff            BFCut       ... 1.0000e-11
Integration weight cutoff        WCut        ... 1.0000e-14
Partially contracted basis set               ... on
Rotationally invariant grid construction     ... off
Angular grids for H and He will be reduced by one unit
Diffuse basis detected: some atoms will have their outermost
                        angular grid increased by 1.

Total number of grid points                  ...    24490
Total number of batches                      ...      205
Average number of points per batch           ...      119
Average number of grid points per atom       ...     1020
UseSFitting                                  ... on

GRIDX 2
-------
General Integration Accuracy     IntAcc      ... 4.020
Radial Grid Type                 RadialGrid  ... OptM3 with GC (2021)
Angular Grid (max. ang.)         AngularGrid ... 2 (Lebedev-110)
Angular grid pruning method      GridPruning ... 4 (adaptive)
Weight generation scheme         WeightScheme... mBecke (2022)
Basis function cutoff            BFCut       ... 1.0000e-11
Integration weight cutoff        WCut        ... 1.0000e-14
Partially contracted basis set               ... on
Rotationally invariant grid construction     ... off
Angular grids for H and He will be reduced by one unit
Diffuse basis detected: some atoms will have their outermost
                        angular grid increased by 1.

Total number of grid points                  ...    50142
Total number of batches                      ...      404
Average number of points per batch           ...      124
Average number of grid points per atom       ...     2089
UseSFitting                                  ... on

GRIDX 3
-------
General Integration Accuracy     IntAcc      ... 4.338
Radial Grid Type                 RadialGrid  ... OptM3 with GC (2021)
Angular Grid (max. ang.)         AngularGrid ... 3 (Lebedev-194)
Angular grid pruning method      GridPruning ... 4 (adaptive)
Weight generation scheme         WeightScheme... mBecke (2022)
Basis function cutoff            BFCut       ... 1.0000e-11
Integration weight cutoff        WCut        ... 1.0000e-14
Partially contracted basis set               ... on
Rotationally invariant grid construction     ... off
Angular grids for H and He will be reduced by one unit
Diffuse basis detected: some atoms will have their outermost
                        angular grid increased by 1.

Total number of grid points                  ...   111309
Total number of batches                      ...      884
Average number of points per batch           ...      125
Average number of grid points per atom       ...     4638
UseSFitting                                  ... on
Initializing property integral containers    ... done (  0.0 sec)

SHARK setup successfully completed in  13.3 seconds

Maximum memory used throughout the entire STARTUP-calculation: 148.6 MB


           ************************************************************
           *        Program running with 8 parallel MPI-processes     *
           *              working on a common directory               *
           ************************************************************
-------------------------------------------------------------------------------
                                 ORCA GUESS
                   Start orbitals & Density for SCF / CASSCF
-------------------------------------------------------------------------------

------------
SCF SETTINGS
------------
Hamiltonian:
 Ab initio Hamiltonian  Method          .... Hartree-Fock(GTOs)
 RI-approximation to the Coulomb term is turned on
   Number of AuxJ basis functions       .... 1211
   RIJ-COSX (HFX calculated with COS-X)).... on


General Settings:
 Integral files         IntName         .... orca
 Hartree-Fock type      HFTyp           .... RHF
 Total Charge           Charge          ....    0
 Multiplicity           Mult            ....    1
 Number of Electrons    NEL             ....   14
 Basis Dimension        Dim             .... 1044
 Nuclear Repulsion      ENuc            ....     22.1486459108 Eh

Convergence Acceleration:
 AO-DIIS                CNVDIIS         .... on
   Start iteration      DIISMaxIt       ....     0
   Startup error        DIISStart       ....  0.200000
   # of expansion vecs  DIISMaxEq       ....     5
   Bias factor          DIISBfac        ....   1.050
   Max. coefficient     DIISMaxC        ....  10.000
 MO-DIIS                CNVKDIIS        .... off
 Trust-Rad. Augm. Hess. CNVTRAH         .... auto
   Auto Start mean grad. ratio tolernc. ....  1.125000
   Auto Start start iteration           ....     1
   Auto Start num. interpolation iter.  ....    10
   Max. Number of Micro iterations      ....    24
   Max. Number of Macro iterations      .... Maxiter - #DIIS iter
   Number of Davidson start vectors     ....     2
   Converg. threshold    (grad. norm)   ....   1.000e-05
   Grad. Scal. Fac. for Micro threshold ....   0.100
   Minimum threshold for Micro iter.    ....   1.000e-02
   NR start threshold (gradient norm)   ....   1.000e-04
   Initial trust radius                 ....   0.400
   Minimum AH scaling param. (alpha)    ....   1.000
   Maximum AH scaling param. (alpha)    .... 1000.000
   Quad. conv. algorithm                .... NR
   White noise on init. David. guess    .... on
   Maximum white noise                  ....   0.010
   Pseudo random numbers                .... off
   Inactive MOs                         .... canonical
   Orbital update algorithm             .... Taylor
   Preconditioner                       .... Diag
   Full preconditioner red. dimension   ....   250
 SOSCF                  CNVSOSCF        .... on
   Start iteration      SOSCFMaxIt      ....   150
   Startup grad/error   SOSCFStart      ....  0.001000
   Hessian update       SOSCFHessUp     .... L-BFGS
 Level Shifting         CNVShift        .... on
   Level shift para.    LevelShift      ....    0.2500
   Turn off err/grad.   ShiftErr        ....    0.0000
 Zerner damping         CNVZerner       .... off
 Static damping         CNVDamp         .... on
   Fraction old density DampFac         ....    0.8500
   Max. Damping (<1)    DampMax         ....    0.9800
   Min. Damping (>=0)   DampMin         ....    0.0000
   Turn off err/grad.   DampErr         ....    0.0300

SCF Procedure:
 Maximum # iterations   MaxIter         ....  1000
 SCF integral mode      SCFMode         .... Direct
   Integral package                     .... SHARK and LIBINT hybrid scheme
 Reset frequency        DirectResetFreq ....    20
 Integral Threshold     Thresh          ....  2.500e-11 Eh
 Primitive CutOff       TCut            ....  2.500e-12 Eh

Convergence Tolerance:
 Convergence Check Mode ConvCheckMode   .... Total+1el-Energy
 Convergence forced     ConvForced      .... 1
 Energy Change          TolE            ....  1.000e-08 Eh
 1-El. energy change                    ....  1.000e-05 Eh
 Orbital Gradient       TolG            ....  1.000e-05
 Orbital Rotation angle TolX            ....  1.000e-05
 DIIS Error             TolErr          ....  5.000e-07

---------------------
INITIAL GUESS: MOREAD
---------------------
Guess MOs are being read from file: orca.ges
Input Geometry matches current geometry (good)
Atom 0: N(Shells)= 14 and 9 - projection required
Input basis set needs projection
NBasis(read)= 527
NBasis(calc)= 1044
Basis set overlap was calculated
Using GuessMode=FMatrix for the initial guess
C*T matrix was formed
Effective Fockian was calculated
Effective Fockian was diagonalized
Initial density was built
                      ------------------
                      INITIAL GUESS DONE (   0.8 sec)
                      ------------------
             **** ENERGY FILE WAS UPDATED (orca.en.tmp) ****
Finished Guess after   2.0 sec
Maximum memory used throughout the entire GUESS-calculation: 141.2 MB


           ************************************************************
           *        Program running with 8 parallel MPI-processes     *
           *              working on a common directory               *
           ************************************************************

-------------------------------------------------------------------------------------------
                                      ORCA LEAN-SCF
                              memory conserving SCF solver
-------------------------------------------------------------------------------------------

----------------------------------------D-I-I-S--------------------------------------------
Iteration    Energy (Eh)           Delta-E    RMSDP     MaxDP     DIISErr   Damp  Time(sec)
-------------------------------------------------------------------------------------------
               ***  Starting incremental Fock matrix formation  ***
    1    -112.7692937171844818     0.00e+00  1.76e-04  3.51e-02  9.72e-02  0.850  19.4
    2    -112.7706257959688259    -1.33e-03  1.64e-04  3.03e-02  8.37e-02  0.850   8.8
                               ***Turning on AO-DIIS***
    3    -112.7717823247361792    -1.16e-03  1.47e-04  2.69e-02  7.18e-02  0.850   8.4
    4    -112.7727798012926002    -9.97e-04  1.28e-04  2.32e-02  6.12e-02  0.850   8.3
    5    -112.7736391368286064    -8.59e-04  1.09e-04  1.98e-02  5.21e-02  0.850   8.2
    6    -112.7743788572916941    -7.40e-04  9.31e-05  1.69e-02  4.43e-02  0.850   8.1
    7    -112.7750148327674395    -6.36e-04  7.92e-05  1.44e-02  3.77e-02  0.850   7.9
    8    -112.7755607172498600    -5.46e-04  6.74e-05  1.23e-02  3.21e-02  0.850   7.7
    9    -112.7760285974278673    -4.68e-04  5.73e-05  1.04e-02  2.73e-02  0.850   7.6
   10    -112.7764291235472598    -4.01e-04  3.25e-04  5.92e-02  2.32e-02  0.000   7.4
                              *** Initializing SOSCF ***
---------------------------------------S-O-S-C-F--------------------------------------
Iteration    Energy (Eh)           Delta-E    RMSDP     MaxDP     MaxGrad    Time(sec)
--------------------------------------------------------------------------------------
   11    -112.7787489845240572    -2.32e-03  2.39e-06  6.62e-04  1.30e-04     9.5
               *** Restarting incremental Fock matrix formation ***
   12    -112.7787534049561913    -4.42e-06  3.09e-05  8.79e-03  5.20e-05    15.7
   13    -112.7787534249172410    -2.00e-08  2.80e-06  7.74e-04  4.80e-06     7.7
   14    -112.7787534344142983    -9.50e-09  1.24e-07  3.30e-05  1.82e-06     5.3
                 **** Energy Check signals convergence ****

               *****************************************************
               *                     SUCCESS                       *
               *           SCF CONVERGED AFTER  14 CYCLES          *
               *****************************************************

Recomputing exchange energy using gridx3       ... done (   26.653 sec)
Old exchange energy                            :    -13.305557301 Eh
New exchange energy                            :    -13.305597613 Eh
Exchange energy change after final integration :     -0.000040312 Eh
Total energy after final integration           :   -112.778793746 Eh
             **** ENERGY FILE WAS UPDATED (orca.en.tmp) ****

----------------
TOTAL SCF ENERGY
----------------

Total Energy       :       -112.77879374649775 Eh           -3068.86700 eV

Components:
Nuclear Repulsion  :         22.14864591080557 Eh             602.69530 eV
Electronic Energy  :       -134.92739934521987 Eh           -3671.56119 eV
One Electron Energy:       -197.50743927029549 Eh           -5374.45065 eV
Two Electron Energy:         62.58003992507562 Eh            1702.88946 eV

Virial components:
Potential Energy   :       -225.26855228611231 Eh           -6129.86894 eV
Kinetic Energy     :        112.48975853961456 Eh            3061.00195 eV
Virial Ratio       :          2.00256943574807

---------------
SCF CONVERGENCE
---------------

  Last Energy change         ...    9.4971e-09  Tolerance :   1.0000e-08
  Last MAX-Density change    ...    3.3010e-05  Tolerance :   1.0000e-07
  Last RMS-Density change    ...    1.2420e-07  Tolerance :   5.0000e-09
  Last DIIS Error            ...    1.3040e-04  Tolerance :   5.0000e-07
  Last Orbital Gradient      ...    1.8162e-06  Tolerance :   1.0000e-05
  Last Orbital Rotation      ...    2.3974e-06  Tolerance :   1.0000e-05


----------------
ORBITAL ENERGIES
----------------

  NO   OCC          E(Eh)            E(eV)
   0   2.0000     -20.668626      -562.4219
   1   2.0000     -11.370038      -309.3945
   2   2.0000      -1.510129       -41.0927
   3   2.0000      -0.803195       -21.8560
   4   2.0000      -0.632391       -17.2082
   5   2.0000      -0.632391       -17.2082
   6   2.0000      -0.556910       -15.1543
   7   0.0000       0.021675         0.5898
   8   0.0000       0.032116         0.8739
   9   0.0000       0.032116         0.8739
  10   0.0000       0.045074         1.2265
  11   0.0000       0.049927         1.3586
  12   0.0000       0.059207         1.6111
  13   0.0000       0.063200         1.7198
  14   0.0000       0.066897         1.8204
  15   0.0000       0.066897         1.8204
  16   0.0000       0.073963         2.0126
  17   0.0000       0.073963         2.0126
*Only the first 10 virtual orbitals were printed.

                    ********************************
                    * MULLIKEN POPULATION ANALYSIS *
                    ********************************

-----------------------
MULLIKEN ATOMIC CHARGES
-----------------------
   0 C :    0.434369
   1 O :   -0.379844
   2 Mg:   -0.154256
   3 O :    0.009071
   4 O :    0.009014
   5 O :    0.008986
   6 O :    0.008990
   7 O :    0.000300
   8 Mg:    0.015925
   9 Mg:    0.016046
  10 Mg:    0.016004
  11 Mg:    0.015956
  12 O :    0.000044
  13 O :    0.000055
  14 O :    0.000056
  15 O :    0.000054
  16 O :   -0.000094
  17 O :   -0.000097
  18 O :   -0.000098
  19 O :   -0.000096
  20 O :   -0.000098
  21 O :   -0.000095
  22 O :   -0.000096
  23 O :   -0.000096
Sum of atomic charges:   -0.0000000

--------------------------------
MULLIKEN REDUCED ORBITAL CHARGES
--------------------------------
  0 C s       :     3.768314  s :     3.768314
      pz      :     0.891033  p :     1.699350
      px      :     0.404152
      py      :     0.404165
      dz2     :     0.016298  d :     0.076518
      dxz     :     0.030108
      dyz     :     0.030113
      dx2y2   :     0.000000
      dxy     :    -0.000000
      f0      :     0.007113  f :     0.021448
      f+1     :     0.007167
      f-1     :     0.007168
      f+2     :    -0.000000
      f-2     :     0.000000
      f+3     :     0.000000
      f-3     :     0.000000

  1 O s       :     3.916188  s :     3.916188
      pz      :     1.356192  p :     4.405337
      px      :     1.524580
      py      :     1.524565
      dz2     :     0.015383  d :     0.054320
      dxz     :     0.019469
      dyz     :     0.019467
      dx2y2   :    -0.000000
      dxy     :    -0.000000
      f0      :     0.000079  f :     0.003999
      f+1     :     0.001960
      f-1     :     0.001960
      f+2     :    -0.000000
      f-2     :    -0.000000
      f+3     :    -0.000000
      f-3     :    -0.000000

  2 Mgs       :     0.044544  s :     0.044544
      pz      :     0.012110  p :     0.098865
      px      :     0.043361
      py      :     0.043394
      dz2     :     0.008401  d :     0.009591
      dxz     :     0.000594
      dyz     :     0.000596
      dx2y2   :     0.000000
      dxy     :    -0.000000
      f0      :     0.001223  f :     0.001257
      f+1     :     0.000017
      f-1     :     0.000017
      f+2     :    -0.000000
      f-2     :    -0.000000
      f+3     :     0.000000
      f-3     :     0.000000

  3 O s       :    -0.007622  s :    -0.007622
      pz      :    -0.001075  p :    -0.001251
      px      :    -0.000781
      py      :     0.000606
      dz2     :    -0.000059  d :    -0.000181
      dxz     :    -0.000252
      dyz     :     0.000005
      dx2y2   :     0.000119
      dxy     :     0.000006
      f0      :    -0.000001  f :    -0.000016
      f+1     :    -0.000010
      f-1     :    -0.000000
      f+2     :    -0.000004
      f-2     :    -0.000000
      f+3     :    -0.000001
      f-3     :    -0.000000

  4 O s       :    -0.007585  s :    -0.007585
      pz      :    -0.001100  p :    -0.001229
      px      :     0.000593
      py      :    -0.000722
      dz2     :    -0.000060  d :    -0.000184
      dxz     :     0.000005
      dyz     :    -0.000254
      dx2y2   :     0.000119
      dxy     :     0.000006
      f0      :    -0.000001  f :    -0.000016
      f+1     :    -0.000000
      f-1     :    -0.000010
      f+2     :    -0.000004
      f-2     :    -0.000000
      f+3     :    -0.000000
      f-3     :    -0.000001

  5 O s       :    -0.007617  s :    -0.007617
      pz      :    -0.001095  p :    -0.001168
      px      :    -0.000694
      py      :     0.000621
      dz2     :    -0.000060  d :    -0.000185
      dxz     :    -0.000255
      dyz     :     0.000005
      dx2y2   :     0.000119
      dxy     :     0.000006
      f0      :    -0.000001  f :    -0.000016
      f+1     :    -0.000010
      f-1     :    -0.000000
      f+2     :    -0.000004
      f-2     :    -0.000000
      f+3     :    -0.000000
      f-3     :    -0.000000

  6 O s       :    -0.007627  s :    -0.007627
      pz      :    -0.001082  p :    -0.001163
      px      :     0.000622
      py      :    -0.000703
      dz2     :    -0.000059  d :    -0.000183
      dxz     :     0.000005
      dyz     :    -0.000254
      dx2y2   :     0.000119
      dxy     :     0.000006
      f0      :    -0.000001  f :    -0.000016
      f+1     :    -0.000000
      f-1     :    -0.000010
      f+2     :    -0.000004
      f-2     :    -0.000000
      f+3     :    -0.000000
      f-3     :    -0.000000

  7 O s       :    -0.000432  s :    -0.000432
      pz      :     0.000339  p :     0.000142
      px      :    -0.000099
      py      :    -0.000099
      dz2     :    -0.000011  d :    -0.000010
      dxz     :     0.000001
      dyz     :     0.000001
      dx2y2   :     0.000000
      dxy     :    -0.000000
      f0      :    -0.000001  f :    -0.000001
      f+1     :     0.000000
      f-1     :     0.000000
      f+2     :     0.000000
      f-2     :    -0.000000
      f+3     :    -0.000000
      f-3     :    -0.000000

  8 Mgs       :    -0.011785  s :    -0.011785
      pz      :     0.000023  p :    -0.003063
      px      :    -0.001542
      py      :    -0.001545
      dz2     :    -0.000131  d :    -0.001015
      dxz     :    -0.000345
      dyz     :    -0.000346
      dx2y2   :     0.000063
      dxy     :    -0.000257
      f0      :    -0.000005  f :    -0.000061
      f+1     :    -0.000010
      f-1     :    -0.000010
      f+2     :    -0.000000
      f-2     :    -0.000028
      f+3     :    -0.000004
      f-3     :    -0.000004

  9 Mgs       :    -0.011913  s :    -0.011913
      pz      :     0.000024  p :    -0.003042
      px      :    -0.001548
      py      :    -0.001518
      dz2     :    -0.000130  d :    -0.001031
      dxz     :    -0.000359
      dyz     :    -0.000357
      dx2y2   :     0.000063
      dxy     :    -0.000247
      f0      :    -0.000005  f :    -0.000060
      f+1     :    -0.000009
      f-1     :    -0.000010
      f+2     :    -0.000000
      f-2     :    -0.000028
      f+3     :    -0.000004
      f-3     :    -0.000004

 10 Mgs       :    -0.011885  s :    -0.011885
      pz      :     0.000025  p :    -0.003018
      px      :    -0.001511
      py      :    -0.001533
      dz2     :    -0.000132  d :    -0.001041
      dxz     :    -0.000360
      dyz     :    -0.000360
      dx2y2   :     0.000064
      dxy     :    -0.000253
      f0      :    -0.000005  f :    -0.000060
      f+1     :    -0.000010
      f-1     :    -0.000009
      f+2     :    -0.000000
      f-2     :    -0.000028
      f+3     :    -0.000004
      f-3     :    -0.000004

 11 Mgs       :    -0.011853  s :    -0.011853
      pz      :     0.000019  p :    -0.003018
      px      :    -0.001513
      py      :    -0.001524
      dz2     :    -0.000132  d :    -0.001025
      dxz     :    -0.000357
      dyz     :    -0.000356
      dx2y2   :     0.000062
      dxy     :    -0.000243
      f0      :    -0.000005  f :    -0.000060
      f+1     :    -0.000010
      f-1     :    -0.000010
      f+2     :    -0.000000
      f-2     :    -0.000028
      f+3     :    -0.000004
      f-3     :    -0.000004

 12 O s       :    -0.000028  s :    -0.000028
      pz      :     0.000045  p :    -0.000017
      px      :    -0.000031
      py      :    -0.000031
      dz2     :     0.000001  d :     0.000001
      dxz     :    -0.000000
      dyz     :    -0.000000
      dx2y2   :    -0.000000
      dxy     :     0.000000
      f0      :     0.000000  f :     0.000000
      f+1     :     0.000000
      f-1     :     0.000000
      f+2     :    -0.000000
      f-2     :    -0.000000
      f+3     :    -0.000000
      f-3     :    -0.000000

 13 O s       :    -0.000031  s :    -0.000031
      pz      :     0.000043  p :    -0.000024
      px      :    -0.000033
      py      :    -0.000033
      dz2     :     0.000001  d :     0.000001
      dxz     :    -0.000000
      dyz     :    -0.000000
      dx2y2   :    -0.000000
      dxy     :     0.000000
      f0      :     0.000000  f :    -0.000000
      f+1     :     0.000000
      f-1     :     0.000000
      f+2     :    -0.000000
      f-2     :    -0.000000
      f+3     :    -0.000000
      f-3     :    -0.000000

 14 O s       :    -0.000032  s :    -0.000032
      pz      :     0.000043  p :    -0.000025
      px      :    -0.000034
      py      :    -0.000034
      dz2     :     0.000001  d :     0.000001
      dxz     :    -0.000000
      dyz     :    -0.000000
      dx2y2   :    -0.000000
      dxy     :     0.000000
      f0      :     0.000000  f :    -0.000000
      f+1     :    -0.000000
      f-1     :    -0.000000
      f+2     :    -0.000000
      f-2     :    -0.000000
      f+3     :    -0.000000
      f-3     :    -0.000000

 15 O s       :    -0.000031  s :    -0.000031
      pz      :     0.000043  p :    -0.000023
      px      :    -0.000033
      py      :    -0.000033
      dz2     :     0.000001  d :     0.000001
      dxz     :    -0.000000
      dyz     :    -0.000000
      dx2y2   :    -0.000000
      dxy     :     0.000000
      f0      :     0.000000  f :    -0.000000
      f+1     :    -0.000000
      f-1     :     0.000000
      f+2     :    -0.000000
      f-2     :    -0.000000
      f+3     :    -0.000000
      f-3     :    -0.000000

 16 O s       :     0.000046  s :     0.000046
      pz      :    -0.000001  p :     0.000049
      px      :     0.000026
      py      :     0.000024
      dz2     :     0.000000  d :    -0.000001
      dxz     :    -0.000000
      dyz     :     0.000000
      dx2y2   :    -0.000000
      dxy     :    -0.000001
      f0      :    -0.000000  f :    -0.000000
      f+1     :    -0.000000
      f-1     :    -0.000000
      f+2     :    -0.000000
      f-2     :    -0.000000
      f+3     :    -0.000000
      f-3     :    -0.000000

 17 O s       :     0.000047  s :     0.000047
      pz      :    -0.000001  p :     0.000051
      px      :     0.000024
      py      :     0.000027
      dz2     :     0.000000  d :    -0.000001
      dxz     :     0.000000
      dyz     :    -0.000000
      dx2y2   :    -0.000000
      dxy     :    -0.000001
      f0      :    -0.000000  f :    -0.000000
      f+1     :    -0.000000
      f-1     :    -0.000000
      f+2     :    -0.000000
      f-2     :    -0.000000
      f+3     :    -0.000000
      f-3     :    -0.000000

 18 O s       :     0.000048  s :     0.000048
      pz      :    -0.000001  p :     0.000051
      px      :     0.000024
      py      :     0.000028
      dz2     :     0.000000  d :    -0.000001
      dxz     :     0.000000
      dyz     :    -0.000000
      dx2y2   :    -0.000000
      dxy     :    -0.000001
      f0      :    -0.000000  f :    -0.000000
      f+1     :    -0.000000
      f-1     :    -0.000000
      f+2     :    -0.000000
      f-2     :    -0.000000
      f+3     :    -0.000000
      f-3     :    -0.000000

 19 O s       :     0.000047  s :     0.000047
      pz      :    -0.000001  p :     0.000050
      px      :     0.000027
      py      :     0.000024
      dz2     :     0.000000  d :    -0.000001
      dxz     :    -0.000000
      dyz     :     0.000000
      dx2y2   :    -0.000000
      dxy     :    -0.000001
      f0      :    -0.000000  f :    -0.000000
      f+1     :    -0.000000
      f-1     :    -0.000000
      f+2     :    -0.000000
      f-2     :    -0.000000
      f+3     :    -0.000000
      f-3     :    -0.000000

 20 O s       :     0.000048  s :     0.000048
      pz      :    -0.000001  p :     0.000051
      px      :     0.000028
      py      :     0.000024
      dz2     :     0.000000  d :    -0.000001
      dxz     :    -0.000000
      dyz     :     0.000000
      dx2y2   :    -0.000000
      dxy     :    -0.000001
      f0      :    -0.000000  f :    -0.000000
      f+1     :    -0.000000
      f-1     :    -0.000000
      f+2     :    -0.000000
      f-2     :    -0.000000
      f+3     :    -0.000000
      f-3     :    -0.000000

 21 O s       :     0.000047  s :     0.000047
      pz      :    -0.000001  p :     0.000049
      px      :     0.000023
      py      :     0.000026
      dz2     :     0.000000  d :    -0.000001
      dxz     :     0.000000
      dyz     :    -0.000000
      dx2y2   :    -0.000000
      dxy     :    -0.000001
      f0      :    -0.000000  f :    -0.000000
      f+1     :    -0.000000
      f-1     :    -0.000000
      f+2     :    -0.000000
      f-2     :    -0.000000
      f+3     :    -0.000000
      f-3     :    -0.000000

 22 O s       :     0.000047  s :     0.000047
      pz      :    -0.000001  p :     0.000050
      px      :     0.000024
      py      :     0.000027
      dz2     :     0.000000  d :    -0.000001
      dxz     :     0.000000
      dyz     :    -0.000000
      dx2y2   :    -0.000000
      dxy     :    -0.000001
      f0      :    -0.000000  f :    -0.000000
      f+1     :    -0.000000
      f-1     :    -0.000000
      f+2     :    -0.000000
      f-2     :    -0.000000
      f+3     :    -0.000000
      f-3     :    -0.000000

 23 O s       :     0.000047  s :     0.000047
      pz      :    -0.000001  p :     0.000050
      px      :     0.000027
      py      :     0.000024
      dz2     :     0.000000  d :    -0.000001
      dxz     :    -0.000000
      dyz     :     0.000000
      dx2y2   :    -0.000000
      dxy     :    -0.000001
      f0      :    -0.000000  f :    -0.000000
      f+1     :    -0.000000
      f-1     :    -0.000000
      f+2     :    -0.000000
      f-2     :    -0.000000
      f+3     :    -0.000000
      f-3     :    -0.000000



                     *******************************
                     * LOEWDIN POPULATION ANALYSIS *
                     *******************************

----------------------
LOEWDIN ATOMIC CHARGES
----------------------
   0 C :    0.192794
   1 O :    0.252675
   2 Mg:   -0.296576
   3 O :   -0.022274
   4 O :   -0.022273
   5 O :   -0.022274
   6 O :   -0.022274
   7 O :   -0.000567
   8 Mg:   -0.014592
   9 Mg:   -0.014592
  10 Mg:   -0.014592
  11 Mg:   -0.014592
  12 O :   -0.000088
  13 O :   -0.000088
  14 O :   -0.000088
  15 O :   -0.000088
  16 O :   -0.000064
  17 O :   -0.000064
  18 O :   -0.000064
  19 O :   -0.000064
  20 O :   -0.000064
  21 O :   -0.000064
  22 O :   -0.000064
  23 O :   -0.000064

-------------------------------
LOEWDIN REDUCED ORBITAL CHARGES
-------------------------------
  0 C s       :     3.024338  s :     3.024338
      pz      :     1.123396  p :     2.046511
      px      :     0.461557
      py      :     0.461557
      dz2     :     0.218374  d :     0.481651
      dxz     :     0.131639
      dyz     :     0.131639
      dx2y2   :     0.000000
      dxy     :     0.000000
      f0      :     0.098051  f :     0.254706
      f+1     :     0.078328
      f-1     :     0.078328
      f+2     :     0.000000
      f-2     :     0.000000
      f+3     :     0.000000
      f-3     :     0.000000

  1 O s       :     3.343005  s :     3.343005
      pz      :     1.601799  p :     4.161225
      px      :     1.279713
      py      :     1.279713
      dz2     :     0.130084  d :     0.184883
      dxz     :     0.027400
      dyz     :     0.027400
      dx2y2   :     0.000000
      dxy     :     0.000000
      f0      :     0.034363  f :     0.058211
      f+1     :     0.011924
      f-1     :     0.011924
      f+2     :     0.000000
      f-2     :     0.000000
      f+3     :     0.000000
      f-3     :     0.000000

  2 Mgs       :     0.032784  s :     0.032784
      pz      :     0.111743  p :     0.115129
      px      :     0.001693
      py      :     0.001693
      dz2     :     0.102914  d :     0.107805
      dxz     :     0.002446
      dyz     :     0.002446
      dx2y2   :     0.000000
      dxy     :     0.000000
      f0      :     0.039851  f :     0.040859
      f+1     :     0.000504
      f-1     :     0.000504
      f+2     :     0.000000
      f-2     :     0.000000
      f+3     :     0.000000
      f-3     :     0.000000

  3 O s       :     0.001586  s :     0.001586
      pz      :     0.009008  p :     0.018206
      px      :     0.009056
      py      :     0.000142
      dz2     :     0.000143  d :     0.002372
      dxz     :     0.002077
      dyz     :     0.000000
      dx2y2   :     0.000152
      dxy     :     0.000000
      f0      :     0.000023  f :     0.000110
      f+1     :     0.000011
      f-1     :     0.000000
      f+2     :     0.000073
      f-2     :     0.000000
      f+3     :     0.000002
      f-3     :     0.000000

  4 O s       :     0.001587  s :     0.001587
      pz      :     0.009007  p :     0.018205
      px      :     0.000142
      py      :     0.009056
      dz2     :     0.000143  d :     0.002372
      dxz     :     0.000000
      dyz     :     0.002077
      dx2y2   :     0.000152
      dxy     :     0.000000
      f0      :     0.000023  f :     0.000110
      f+1     :     0.000000
      f-1     :     0.000011
      f+2     :     0.000073
      f-2     :     0.000000
      f+3     :     0.000000
      f-3     :     0.000002

  5 O s       :     0.001587  s :     0.001587
      pz      :     0.009007  p :     0.018206
      px      :     0.009056
      py      :     0.000143
      dz2     :     0.000143  d :     0.002372
      dxz     :     0.002077
      dyz     :     0.000000
      dx2y2   :     0.000152
      dxy     :     0.000000
      f0      :     0.000023  f :     0.000110
      f+1     :     0.000011
      f-1     :     0.000000
      f+2     :     0.000073
      f-2     :     0.000000
      f+3     :     0.000002
      f-3     :     0.000000

  6 O s       :     0.001586  s :     0.001586
      pz      :     0.009008  p :     0.018206
      px      :     0.000143
      py      :     0.009056
      dz2     :     0.000143  d :     0.002372
      dxz     :     0.000000
      dyz     :     0.002077
      dx2y2   :     0.000152
      dxy     :     0.000000
      f0      :     0.000023  f :     0.000110
      f+1     :     0.000000
      f-1     :     0.000011
      f+2     :     0.000073
      f-2     :     0.000000
      f+3     :     0.000000
      f-3     :     0.000002

  7 O s       :     0.000048  s :     0.000048
      pz      :     0.000440  p :     0.000450
      px      :     0.000005
      py      :     0.000005
      dz2     :     0.000063  d :     0.000065
      dxz     :     0.000001
      dyz     :     0.000001
      dx2y2   :     0.000000
      dxy     :     0.000000
      f0      :     0.000003  f :     0.000004
      f+1     :     0.000000
      f-1     :     0.000000
      f+2     :     0.000000
      f-2     :     0.000000
      f+3     :     0.000000
      f-3     :     0.000000

  8 Mgs       :     0.002119  s :     0.002119
      pz      :     0.003194  p :     0.011248
      px      :     0.004027
      py      :     0.004027
      dz2     :     0.000033  d :     0.001089
      dxz     :     0.000381
      dyz     :     0.000381
      dx2y2   :     0.000000
      dxy     :     0.000294
      f0      :     0.000045  f :     0.000136
      f+1     :     0.000003
      f-1     :     0.000003
      f+2     :     0.000000
      f-2     :     0.000069
      f+3     :     0.000008
      f-3     :     0.000008

  9 Mgs       :     0.002119  s :     0.002119
      pz      :     0.003194  p :     0.011248
      px      :     0.004027
      py      :     0.004027
      dz2     :     0.000033  d :     0.001088
      dxz     :     0.000380
      dyz     :     0.000380
      dx2y2   :     0.000000
      dxy     :     0.000294
      f0      :     0.000045  f :     0.000136
      f+1     :     0.000003
      f-1     :     0.000003
      f+2     :     0.000000
      f-2     :     0.000069
      f+3     :     0.000008
      f-3     :     0.000008

 10 Mgs       :     0.002119  s :     0.002119
      pz      :     0.003194  p :     0.011249
      px      :     0.004027
      py      :     0.004027
      dz2     :     0.000033  d :     0.001088
      dxz     :     0.000380
      dyz     :     0.000380
      dx2y2   :     0.000000
      dxy     :     0.000294
      f0      :     0.000045  f :     0.000136
      f+1     :     0.000003
      f-1     :     0.000003
      f+2     :     0.000000
      f-2     :     0.000069
      f+3     :     0.000008
      f-3     :     0.000008

 11 Mgs       :     0.002119  s :     0.002119
      pz      :     0.003194  p :     0.011248
      px      :     0.004027
      py      :     0.004027
      dz2     :     0.000033  d :     0.001088
      dxz     :     0.000380
      dyz     :     0.000380
      dx2y2   :     0.000000
      dxy     :     0.000294
      f0      :     0.000045  f :     0.000136
      f+1     :     0.000003
      f-1     :     0.000003
      f+2     :     0.000000
      f-2     :     0.000069
      f+3     :     0.000008
      f-3     :     0.000008

 12 O s       :     0.000066  s :     0.000066
      pz      :     0.000005  p :     0.000010
      px      :     0.000003
      py      :     0.000003
      dz2     :     0.000003  d :     0.000012
      dxz     :     0.000001
      dyz     :     0.000001
      dx2y2   :     0.000000
      dxy     :     0.000008
      f0      :     0.000000  f :     0.000001
      f+1     :     0.000000
      f-1     :     0.000000
      f+2     :     0.000000
      f-2     :     0.000000
      f+3     :     0.000000
      f-3     :     0.000000

 13 O s       :     0.000066  s :     0.000066
      pz      :     0.000005  p :     0.000010
      px      :     0.000002
      py      :     0.000002
      dz2     :     0.000003  d :     0.000012
      dxz     :     0.000001
      dyz     :     0.000001
      dx2y2   :     0.000000
      dxy     :     0.000008
      f0      :     0.000000  f :     0.000001
      f+1     :     0.000000
      f-1     :     0.000000
      f+2     :     0.000000
      f-2     :     0.000000
      f+3     :     0.000000
      f-3     :     0.000000

 14 O s       :     0.000066  s :     0.000066
      pz      :     0.000005  p :     0.000010
      px      :     0.000002
      py      :     0.000002
      dz2     :     0.000003  d :     0.000012
      dxz     :     0.000001
      dyz     :     0.000001
      dx2y2   :     0.000000
      dxy     :     0.000008
      f0      :     0.000000  f :     0.000001
      f+1     :     0.000000
      f-1     :     0.000000
      f+2     :     0.000000
      f-2     :     0.000000
      f+3     :     0.000000
      f-3     :     0.000000

 15 O s       :     0.000066  s :     0.000066
      pz      :     0.000005  p :     0.000010
      px      :     0.000002
      py      :     0.000002
      dz2     :     0.000003  d :     0.000012
      dxz     :     0.000001
      dyz     :     0.000001
      dx2y2   :     0.000000
      dxy     :     0.000008
      f0      :     0.000000  f :     0.000001
      f+1     :     0.000000
      f-1     :     0.000000
      f+2     :     0.000000
      f-2     :     0.000000
      f+3     :     0.000000
      f-3     :     0.000000

 16 O s       :     0.000017  s :     0.000017
      pz      :     0.000025  p :     0.000033
      px      :     0.000006
      py      :     0.000002
      dz2     :     0.000000  d :     0.000013
      dxz     :     0.000005
      dyz     :     0.000003
      dx2y2   :     0.000004
      dxy     :     0.000002
      f0      :     0.000000  f :     0.000000
      f+1     :     0.000000
      f-1     :     0.000000
      f+2     :     0.000000
      f-2     :     0.000000
      f+3     :     0.000000
      f-3     :     0.000000

 17 O s       :     0.000017  s :     0.000017
      pz      :     0.000025  p :     0.000033
      px      :     0.000002
      py      :     0.000006
      dz2     :     0.000000  d :     0.000013
      dxz     :     0.000003
      dyz     :     0.000005
      dx2y2   :     0.000004
      dxy     :     0.000002
      f0      :     0.000000  f :     0.000000
      f+1     :     0.000000
      f-1     :     0.000000
      f+2     :     0.000000
      f-2     :     0.000000
      f+3     :     0.000000
      f-3     :     0.000000

 18 O s       :     0.000018  s :     0.000018
      pz      :     0.000025  p :     0.000033
      px      :     0.000002
      py      :     0.000006
      dz2     :     0.000000  d :     0.000013
      dxz     :     0.000003
      dyz     :     0.000005
      dx2y2   :     0.000004
      dxy     :     0.000002
      f0      :     0.000000  f :     0.000000
      f+1     :     0.000000
      f-1     :     0.000000
      f+2     :     0.000000
      f-2     :     0.000000
      f+3     :     0.000000
      f-3     :     0.000000

 19 O s       :     0.000018  s :     0.000018
      pz      :     0.000025  p :     0.000033
      px      :     0.000006
      py      :     0.000002
      dz2     :     0.000000  d :     0.000013
      dxz     :     0.000005
      dyz     :     0.000003
      dx2y2   :     0.000004
      dxy     :     0.000002
      f0      :     0.000000  f :     0.000000
      f+1     :     0.000000
      f-1     :     0.000000
      f+2     :     0.000000
      f-2     :     0.000000
      f+3     :     0.000000
      f-3     :     0.000000

 20 O s       :     0.000018  s :     0.000018
      pz      :     0.000025  p :     0.000033
      px      :     0.000006
      py      :     0.000002
      dz2     :     0.000000  d :     0.000013
      dxz     :     0.000005
      dyz     :     0.000003
      dx2y2   :     0.000004
      dxy     :     0.000002
      f0      :     0.000000  f :     0.000000
      f+1     :     0.000000
      f-1     :     0.000000
      f+2     :     0.000000
      f-2     :     0.000000
      f+3     :     0.000000
      f-3     :     0.000000

 21 O s       :     0.000017  s :     0.000017
      pz      :     0.000025  p :     0.000033
      px      :     0.000002
      py      :     0.000006
      dz2     :     0.000000  d :     0.000013
      dxz     :     0.000003
      dyz     :     0.000005
      dx2y2   :     0.000004
      dxy     :     0.000002
      f0      :     0.000000  f :     0.000000
      f+1     :     0.000000
      f-1     :     0.000000
      f+2     :     0.000000
      f-2     :     0.000000
      f+3     :     0.000000
      f-3     :     0.000000

 22 O s       :     0.000018  s :     0.000018
      pz      :     0.000025  p :     0.000033
      px      :     0.000002
      py      :     0.000006
      dz2     :     0.000000  d :     0.000013
      dxz     :     0.000003
      dyz     :     0.000005
      dx2y2   :     0.000004
      dxy     :     0.000002
      f0      :     0.000000  f :     0.000000
      f+1     :     0.000000
      f-1     :     0.000000
      f+2     :     0.000000
      f-2     :     0.000000
      f+3     :     0.000000
      f-3     :     0.000000

 23 O s       :     0.000017  s :     0.000017
      pz      :     0.000025  p :     0.000033
      px      :     0.000006
      py      :     0.000002
      dz2     :     0.000000  d :     0.000013
      dxz     :     0.000005
      dyz     :     0.000003
      dx2y2   :     0.000004
      dxy     :     0.000002
      f0      :     0.000000  f :     0.000000
      f+1     :     0.000000
      f-1     :     0.000000
      f+2     :     0.000000
      f-2     :     0.000000
      f+3     :     0.000000
      f-3     :     0.000000



                      *****************************
                      * MAYER POPULATION ANALYSIS *
                      *****************************

  NA   - Mulliken gross atomic population
  ZA   - Total nuclear charge
  QA   - Mulliken gross atomic charge
  VA   - Mayer's total valence
  BVA  - Mayer's bonded valence
  FA   - Mayer's free valence

  ATOM       NA         ZA         QA         VA         BVA        FA
  0 C      5.5656     6.0000     0.4344     2.2389     2.2389    -0.0000
  1 O      8.3798     8.0000    -0.3798     2.1520     2.1520    -0.0000
  2 Mg     0.1543     0.0000    -0.1543     0.3000     0.3000    -0.0000
  3 O     -0.0091     0.0000     0.0091    -0.0182    -0.0182     0.0000
  4 O     -0.0090     0.0000     0.0090    -0.0181    -0.0181     0.0000
  5 O     -0.0090     0.0000     0.0090    -0.0180    -0.0180     0.0000
  6 O     -0.0090     0.0000     0.0090    -0.0181    -0.0181     0.0000
  7 O     -0.0003     0.0000     0.0003    -0.0006    -0.0006     0.0000
  8 Mg    -0.0159     0.0000     0.0159    -0.0321    -0.0321     0.0000
  9 Mg    -0.0160     0.0000     0.0160    -0.0324    -0.0324    -0.0000
 10 Mg    -0.0160     0.0000     0.0160    -0.0323    -0.0323     0.0000
 11 Mg    -0.0160     0.0000     0.0160    -0.0322    -0.0322     0.0000
 12 O     -0.0000     0.0000     0.0000    -0.0001    -0.0001     0.0000
 13 O     -0.0001     0.0000     0.0001    -0.0001    -0.0001     0.0000
 14 O     -0.0001     0.0000     0.0001    -0.0001    -0.0001     0.0000
 15 O     -0.0001     0.0000     0.0001    -0.0001    -0.0001     0.0000
 16 O      0.0001     0.0000    -0.0001     0.0002     0.0002     0.0000
 17 O      0.0001     0.0000    -0.0001     0.0002     0.0002     0.0000
 18 O      0.0001     0.0000    -0.0001     0.0002     0.0002     0.0000
 19 O      0.0001     0.0000    -0.0001     0.0002     0.0002     0.0000
 20 O      0.0001     0.0000    -0.0001     0.0002     0.0002     0.0000
 21 O      0.0001     0.0000    -0.0001     0.0002     0.0002     0.0000
 22 O      0.0001     0.0000    -0.0001     0.0002     0.0002     0.0000
 23 O      0.0001     0.0000    -0.0001     0.0002     0.0002     0.0000

  Mayer bond orders larger than 0.100000
B(  0-C ,  1-O ) :   2.1411 B(  0-C ,  2-Mg) :   0.2223

-------
TIMINGS
-------

Total SCF time: 0 days 0 hours 2 min 38 sec

Total time                  ....     158.871 sec
Sum of individual times     ....     158.899 sec  (100.0%)

SCF preparation             ....       1.302 sec  (  0.8%)
Fock matrix formation       ....     147.872 sec  ( 93.1%)
  Startup                   ....       0.157 sec  (  0.1% of F)
  Split-RI-J                ....      18.364 sec  ( 12.4% of F)
  Chain of spheres X        ....     128.897 sec  ( 87.2% of F)
Diagonalization             ....       0.000 sec  (  0.0%)
Density matrix formation    ....       0.692 sec  (  0.4%)
Total Energy calculation    ....       0.290 sec  (  0.2%)
Population analysis         ....       0.292 sec  (  0.2%)
Orbital Transformation      ....       0.876 sec  (  0.6%)
Orbital Orthonormalization  ....       0.000 sec  (  0.0%)
DIIS solution               ....       6.407 sec  (  4.0%)
SOSCF solution              ....       1.152 sec  (  0.7%)
Finished LeanSCF after 159.0 sec

Maximum memory used throughout the entire LEANSCF-calculation: 206.4 MB


           ************************************************************
           *        Program running with 8 parallel MPI-processes     *
           *              working on a common directory               *
           ************************************************************

------------------------------------------------------------------------------
                                ORCA  MP2
------------------------------------------------------------------------------

NOTE: Switching SHARK to Segmented Contraction for MP2
      If that is not desired please turn off the PGCFlag in the input (%shark PGCFlag 0 end)
      Number of basis functions in BAS before restore: 1298
      Number of basis functions in BAS after restore : 1044
Freezing NCore=4 chemical core electrons

-------------
RI-MP2 ENERGY
-------------
Dimension of the orbital basis            ... 1044
Dimension of the AuxC basis               ... 2624
Memory devoted to MP2                     ... 25000 MB
Data format for matrix containers         ... DOUBLE
Compression type for matrix containers    ... UNCOMPRESSED

-----------------------
SHARK RI TRANSFORMATION
-----------------------

Number of basis functions                ...   1044
Number of aux functions                  ...   2624
Number of operators                      ...      1
Generation of IJK                        ... NO
Generation of IAK                        ... YES
Generation of ABK                        ... NO
Orbital Range Operator  0:    2-   6 to    7-1043

Aux basis identifier                     ...   AUXC
Contraction scheme used                  ... SEGMENTED
Do orthogonalization                     ... YES
All operator combinations                ... NO
Transpose (ia|K)                         ... NO
Integral generator used                  ... LIBINT
Starting integral generation + trafo...
Half trafo (segmented) done. Total time =  8.8 sec. integrals=  5.1 sec trafo=  3.2 sec
Integral generation and half transformation done (  8.8 sec)

Reading or making V^(-1/2)          ... done (  0.2 sec)
Sorting IAK integrals               ... done (  0.6 sec)

SHARK RI integral transformation done. Total time =  9.6 sec.

Opening buffers                              ... done

Starting loop over batches of integrals:

Operator 0  - window                       ... (  2-  6)x(  7-1043)
Operator 0  - Memory available             ... 25000 MB
Operator 0  - Memory needed per MO         ...  20.8 MB
Operator 0  - Number of orbitals per batch ... 1
Operator 0  - Number of batches            ... 1

OPERATOR  0   PASS   0:  MOs     2 ...    2 +    3 ...    3 +    4 ...    4 +    5 ...    5
                            +    6 ...    6
  Reading integrals       ... ok
Time spent in pair loops =     0.966 sec
Deleting buffers (Ka|jb) ...done

-----------------------------------------------
 RI-MP2 CORRELATION ENERGY:     -0.364654850 Eh
-----------------------------------------------


-------
TIMINGS
-------

Total time                :   12.603 sec
Integral trafo            :    9.607 sec ( 76.2%)
I/O of integrals          :    0.013 sec (  0.1%)
K(i,j) operators          :    0.160 sec (  1.3%)
T(i,j) pair energies      :    0.012 sec (  0.1%)
V**(-1/2)                 :    2.029 sec ( 16.1%)


---------------------------------------
MP2 TOTAL ENERGY:     -113.143448596 Eh
---------------------------------------

Maximum memory used throughout the entire MP2-calculation: 189.5 MB

-------------------------   --------------------
FINAL SINGLE POINT ENERGY      -113.143448596310
-------------------------   --------------------



           ************************************************************
           *        Program running with 8 parallel MPI-processes     *
           *              working on a common directory               *
           ************************************************************

------------------------------------------------------------------------------
                              ORCA PROPERTY CALCULATIONS
------------------------------------------------------------------------------

GBWName                                 ... orca.gbw
Number of atoms                         ...     24
Number of basis functions               ...   1298
Max core memory                         ...  25000 MB

Electric properties:
Dipole moment                           ... YES
Quadrupole moment                       ...  NO
Static polarizability (Dipole/Dipole)   ...  NO
Static polarizability (Dipole/Quad.)    ...  NO
Static polarizability (Quad./Quad.)     ...  NO
Static polarizability (Velocity)        ...  NO

Atomic electric properties:
Dipole moment                           ...  NO
Quadrupole moment                       ...  NO
Static polarizability                   ...  NO

Choice of electric origin               ... Center of mass
Position of electric origin             ...     0.000000     0.000000     5.850730

General magnetic properties:
Magnetizability                         ...  NO

EPR properties:
g-Tensor (aka g-matrix)                 ...  NO
Zero-Field splitting spin-orbit         ...  NO
Zero-field splitting spin-spin          ...  NO
Hyperfine couplings                     ...  NO (   0 nuclei)
Quadrupole couplings                    ...  NO (   0 nuclei)
Contact density                         ...  NO (   0 nuclei)

NMR properties:
Chemical shifts                         ...  NO (   0 nuclei)
Spin-rotation constants                 ...  NO (   0 nuclei)
Spin-spin couplings                     ...  NO (   0 nuclei,    0 pairs)

Choice of magnetic origin               ... GIAO
Position of magnetic origin             ...     0.000000     0.000000     0.000000

Properties with geometric perturbations:
SCF Hessian                             ...  NO
IR spectrum                             ...  NO
VCD spectrum                            ...  NO
X-ray spectroscopy properties:
SCF XES/XAS/RIXS spectra                ...  NO


-------------
DIPOLE MOMENT
-------------

Method             : SCF
Type of density    : Electron Density
Multiplicity       :   1
Irrep              :   0
Energy             :  -112.7787937464977546 Eh
Relativity type    :
Basis              : AO
                                X                 Y                 Z
Electronic contribution:     -0.000000641       0.000000209      -0.147787538
Nuclear contribution   :      0.000000000       0.000000000       0.007272920
                        -----------------------------------------
Total Dipole Moment    :     -0.000000641       0.000000209      -0.140514618
                        -----------------------------------------
Magnitude (a.u.)       :      0.140514618
Magnitude (Debye)      :      0.357159775



--------------------
Rotational spectrum
--------------------

Rotational constants in cm-1:             0.000000             1.868304             1.868304
Rotational constants in MHz :             0.000000         56010.355777         56010.355777

Dipole components along the rotational axes:
x,y,z [a.u.] :    -0.140515     0.000000    -0.000001
x,y,z [Debye]:    -0.357160     0.000001    -0.000002



Dipole moment calculation done in   0.0 sec

Maximum memory used throughout the entire PROP-calculation: 117.5 MB

--------------------------------
SUGGESTED CITATIONS FOR THIS RUN
--------------------------------

Below you find a list of papers that are relevant to this ORCA run
We neither can nor want to force you to cite these papers, but we appreciate if you do
You receive ORCA, which is the product of decades of hard work by many enthusiastic individuals, for free
The only thing we kindly ask in return is that you cite our papers,
We deeply appreciate it, if you show your appreciation for ORCA by not just citing the generic ORCA reference.

Please note that relegating all ORCA citations to the supporting information does *not* help us.
SI sections are not indexed - citations you put there will not count into any citation statistics
But we need these citations in order to attract the funding resources that allow us to do what we are doing

Therefore, if you are a happy ORCA user, please consider citing a few of the papers listed below in the main body of your paper

In addition to the list printed below, the program has created the file orca.bibtex that contains the list in bibtex format
You can import this file easily into all common literature databanks and citation aid programs


List of essential papers. We consider these as the minimum necessary citations

  1. Neese,F.
     Software update: the ORCA program system, version 5.0
     WIRES Comput. Molec. Sci., 2022 12(1)e1606
     doi.org/10.1002/wcms.1606

List of papers to cite with high priority. The work reported in these papers was absolutely
necessary for this run to complete.
Our perspective: the developers of density functionals and basis sets usually get cited in chemistry papers
Good! But without the algorithms to do something with them, the functionals or basis sets would not do anything.
Hence, in our opinion, the algorithm design and method developments papers are equally worthy of getting cited

  1. Neese,F.
     An improvement of the resolution of the identity approximation for the formation of the Coulomb matrix
     J. Comp. Chem., 2003 24(14)1740-1747
     doi.org/10.1002/jcc.10318
  2. Neese,F.; Wennmohs,F.; Hansen,A.; Becker,U.
     Efficient, approximate and parallel Hartree-Fock and hybrid DFT calculations. A 'chain-of-spheres' algorithm for the Hartree-Fock exchange
     Chem. Phys., 2009 356(1-3)98-109
     doi.org/10.1016/j.chemphys.2008.10.036
  3. Kossmann,S.; Neese,F.
     Efficient Structure Optimization with Second-Order Many-Body Perturbation Theory: The RIJCOSX-MP2 Method
     J. Theo. Comp. Chem., 2010 6 2325-2338
     doi.org/10.1021/ct100199k
  4. Helmich-Paris,B.; de Souza,B.; Neese,F.; Izsák,R.
     An improved chain of spheres for exchange algorithm
     J. Chem. Phys., 2021 155 104109
     doi.org/doi: 10.1063/5.0058766.
  5. Neese,F.
     The SHARK Integral Generation and Digestion System
     J. Comp. Chem., 2022  1-16
     doi.org/10.1002/jcc.26942

List of suggested additional citations. These are papers that are important in the 'surrounding' of
of this run, or papers that preceded the highly important papers. If you like your results we are grateful for a citation.

  1. Izsak,R.; Neese,F.
     An overlap fitted chain of spheres exchange method
     J. Chem. Phys., 2011 135 144105
     doi.org/10.1063/1.3646921
  2. Izsak,R.; Hansen,A.; Neese,F.
     The resolution of identity and chain of spheres approximations for the LPNO-CCSD singles Fock term
     Molec. Phys., 2012 110 2413-2417
     doi.org/10.1080/00268976.2012.687466
  3. Neese,F.
     The ORCA program system
     WIRES Comput. Molec. Sci., 2012 2(1)73-78
     doi.org/10.1002/wcms.81
  4. Izsak,R.; Neese,F.; Klopper,W.
     Robust fitting techniques in the chain of spheres approximation to the Fock exchange: The role of the complementary space
     J. Chem. Phys., 2013 139
     doi.org/10.1063/1.4819264
  5. Neese,F.
     Software update: the ORCA program system, version 4.0
     WIRES Comput. Molec. Sci., 2018 8(1)1-6
     doi.org/10.1002/wcms.1327
  6. Neese,F.; Wennmohs,F.; Becker,U.; Riplinger,C.
     The ORCA quantum chemistry program package
     J. Chem. Phys., 2020 152 Art. No. L224108
     doi.org/10.1063/5.0004608

List of optional additional citations

  1. Neese,F.
     Approximate second-order SCF convergence for spin unrestricted wavefunctions
     Chem. Phys. Lett., 2000 325(1-3)93-98
     doi.org/10.1016/s0009-2614(00)00662-x

Timings for individual modules:

Sum of individual times          ...      195.955 sec (=   3.266 min)
Startup calculation              ...       14.630 sec (=   0.244 min)   7.5 %
SCF iterations                   ...      162.387 sec (=   2.706 min)  82.9 %
Property calculations            ...        3.085 sec (=   0.051 min)   1.6 %
MP2 module                       ...       15.853 sec (=   0.264 min)   8.1 %
                             ****ORCA TERMINATED NORMALLY****
TOTAL RUN TIME: 0 days 0 hours 3 minutes 20 seconds 502 msec
