 vasp.6.3.0 20Jan22 (build Apr  1 2022 16:44:48) gamma-only                      
 executed on        HPECrayEX_GCC date 2023.01.23  22:22:39
 running  512 mpi-ranks, with    1 threads/rank
 distrk:  each k-point on  512 cores,    1 groups
 distr:  one band on NCORE=   8 cores,   64 groups


--------------------------------------------------------------------------------------------------------


 INCAR:
   SYSTEM = MgO-rocksalt
   ISMEAR = 0
   SIGMA = 0.05
   EDIFF = 1E-8
   ALGO = ALL
   ISTART = 0
   IBRION = 5
   POTIM = 0.01
   NFREE = 2
   ISYM = 0
   DIPOL = 0.5 0.5 0.5
   IDIPOL = 4
   LDIPOL = .TRUE.
   GGA = MK
   LUSE_VDW = .TRUE.
   PARAM1 = 0.1234
   PARAM2 = 0.711357
   ZAB_VDW = -1.8867
   AGGAC = 0.0
   ENCUT = 600
   PREC = Accurate
   LASPH = .TRUE.
   LREAL = .FALSE.
   ISPIN = 1
   NELM = 200
   NELMIN = 8
   NCORE = 8
   KPAR = 1
   LWAVE = .FALSE.
   LCHARG = .FALSE.

 POTCAR:    PAW_PBE C 08Apr2002                   
 POTCAR:    PAW_PBE O 08Apr2002                   
 -----------------------------------------------------------------------------
|                                                                             |
|               ----> ADVICE to this user running VASP <----                  |
|                                                                             |
|     You have switched on vdW-DFT.                                           |
|     This routine was written and supplied by Jiri Klimes. We recommend      |
|     that you carefully read and cite the following publications:            |
|       J. Klimes, D.R. Bowler, A. Michelides                                 |
|          J. Phys.: Cond Matt. 22 022201 (2010)                              |
|       J. Klimes, D.R. Bowler, A. Michelides                                 |
|          Phys. Rev. B. 83, 195131 (2011)                                    |
|     and references therein.                                                 |
|                                                                             |
 -----------------------------------------------------------------------------

 POTCAR:    PAW_PBE C 08Apr2002                   
   SHA256 =  253f7b50bb8d59471dbedb8285d89021f4a42ed1a2c5d38a03a736e69125dd95 C/POTCAR              
   COPYR  = (c) Copyright 08Apr2002 Georg Kresse                                                    
   COPYR  = This file is part of the software VASP. Any use, copying, and all other rights are regul
   COPYR  = If you do not have a valid VASP license, you may not use, copy or distribute this file. 
   VRHFIN =C: s2p2                                                                                  
   LEXCH  = PE                                                                                      
   EATOM  =   147.1560 eV,   10.8157 Ry                                                             
                                                                                                    
   TITEL  = PAW_PBE C 08Apr2002                                                                     
   LULTRA =        F    use ultrasoft PP ?                                                          
   IUNSCR =        1    unscreen: 0-lin 1-nonlin 2-no                                               
   RPACOR =    1.200    partial core radius                                                         
   POMASS =   12.011; ZVAL   =    4.000    mass and valenz                                          
   RCORE  =    1.500    outmost cutoff radius                                                       
   RWIGS  =    1.630; RWIGS  =    0.863    wigner-seitz radius (au A)                               
   ENMAX  =  400.000; ENMIN  =  300.000 eV                                                          
   ICORE  =        2    local potential                                                             
   LCOR   =        T    correct aug charges                                                         
   LPAW   =        T    paw PP                                                                      
   EAUG   =  644.873                                                                                
   DEXC   =    0.000                                                                                
   RMAX   =    1.529    core radius for proj-oper                                                   
   RAUG   =    1.300    factor for augmentation sphere                                              
   RDEP   =    1.501    radius for radial grids                                                     
   RDEPT  =    1.300    core radius for aug-charge                                                  
                                                                                                    
   Atomic configuration                                                                             
    4 entries                                                                                       
     n  l   j            E        occ.                                                              
     1  0  0.50      -273.3789   2.0000                                                             
     2  0  0.50       -13.7508   2.0000                                                             
     2  1  0.50        -5.2854   2.0000                                                             
     3  2  1.50        -5.4423   0.0000                                                             
   Description                                                                                      
     l       E           TYP  RCUT    TYP  RCUT                                                     
     0    -13.7508458     23  1.200                                                                 
     0     -8.2022199     23  1.200                                                                 
     1     -5.2854383     23  1.500                                                                 
     1     34.0145650     23  1.500                                                                 
     2     -5.4423304      7  1.500                                                                 
  local pseudopotential read in
  partial core-charges read in
  partial kinetic energy density read in
  atomic valenz-charges read in
  non local Contribution for L=           0  read in
    real space projection operators read in
  non local Contribution for L=           0  read in
    real space projection operators read in
  non local Contribution for L=           1  read in
    real space projection operators read in
  non local Contribution for L=           1  read in
    real space projection operators read in
    PAW grid and wavefunctions read in

   number of l-projection  operators is LMAX  =           4
   number of lm-projection operators is LMMAX =           8

 POTCAR:    PAW_PBE O 08Apr2002                   
   SHA256 =  818f92134a0a090dccd8ba1447fa70422a3b330e708bb4f08108d8ae51209ddf O/POTCAR              
   COPYR  = (c) Copyright 08Apr2002 Georg Kresse                                                    
   COPYR  = This file is part of the software VASP. Any use, copying, and all other rights are regul
   COPYR  = If you do not have a valid VASP license, you may not use, copy or distribute this file. 
   VRHFIN =O: s2p4                                                                                  
   LEXCH  = PE                                                                                      
   EATOM  =   432.3788 eV,   31.7789 Ry                                                             
                                                                                                    
   TITEL  = PAW_PBE O 08Apr2002                                                                     
   LULTRA =        F    use ultrasoft PP ?                                                          
   IUNSCR =        1    unscreen: 0-lin 1-nonlin 2-no                                               
   RPACOR =    1.200    partial core radius                                                         
   POMASS =   16.000; ZVAL   =    6.000    mass and valenz                                          
   RCORE  =    1.520    outmost cutoff radius                                                       
   RWIGS  =    1.550; RWIGS  =    0.820    wigner-seitz radius (au A)                               
   ENMAX  =  400.000; ENMIN  =  300.000 eV                                                          
   ICORE  =        2    local potential                                                             
   LCOR   =        T    correct aug charges                                                         
   LPAW   =        T    paw PP                                                                      
   EAUG   =  605.392                                                                                
   DEXC   =    0.000                                                                                
   RMAX   =    1.553    core radius for proj-oper                                                   
   RAUG   =    1.300    factor for augmentation sphere                                              
   RDEP   =    1.550    radius for radial grids                                                     
   RDEPT  =    1.329    core radius for aug-charge                                                  
                                                                                                    
   Atomic configuration                                                                             
    4 entries                                                                                       
     n  l   j            E        occ.                                                              
     1  0  0.50      -514.6923   2.0000                                                             
     2  0  0.50       -23.9615   2.0000                                                             
     2  1  0.50        -9.0305   4.0000                                                             
     3  2  1.50        -9.5241   0.0000                                                             
   Description                                                                                      
     l       E           TYP  RCUT    TYP  RCUT                                                     
     0    -23.9615318     23  1.200                                                                 
     0     -9.5240782     23  1.200                                                                 
     1     -9.0304911     23  1.520                                                                 
     1      8.1634956     23  1.520                                                                 
     2     -9.5240782      7  1.500                                                                 
  local pseudopotential read in
  partial core-charges read in
  partial kinetic energy density read in
  kinetic energy density of atom read in
  atomic valenz-charges read in
  non local Contribution for L=           0  read in
    real space projection operators read in
  non local Contribution for L=           0  read in
    real space projection operators read in
  non local Contribution for L=           1  read in
    real space projection operators read in
  non local Contribution for L=           1  read in
    real space projection operators read in
    PAW grid and wavefunctions read in

   number of l-projection  operators is LMAX  =           4
   number of lm-projection operators is LMMAX =           8

 -----------------------------------------------------------------------------
|                                                                             |
|               ----> ADVICE to this user running VASP <----                  |
|                                                                             |
|     You enforced a specific xc type in the INCAR file but a different       |
|     type was found in the POTCAR file.                                      |
|     I HOPE YOU KNOW WHAT YOU ARE DOING!                                     |
|                                                                             |
 -----------------------------------------------------------------------------

  PAW_PBE C 08Apr2002                   :
 energy of atom  1       EATOM= -147.1560
 kinetic energy error for atom=    0.0057 (will be added to EATOM!!)
  PAW_PBE O 08Apr2002                   :
 energy of atom  2       EATOM= -432.3788
 kinetic energy error for atom=    0.0168 (will be added to EATOM!!)


 POSCAR:  C  O
  positions in direct lattice
  No initial velocities read in
 exchange correlation table for  LEXCH =       43
   RHO(1)=    0.500       N(1)  =     2000
   RHO(2)=  100.500       N(2)  =     4000



--------------------------------------------------------------------------------------------------------


 ion  position               nearest neighbor table
   1  0.500  0.500  0.473-   2 1.14
   2  0.500  0.500  0.527-   1 1.14


IMPORTANT INFORMATION: All symmetrisations will be switched off!
NOSYMM: (Re-)initialisation of all symmetry stuff for point group C_1.


----------------------------------------------------------------------------------------

                                     Primitive cell                                     

  volume of cell :    8450.5313

  direct lattice vectors                    reciprocal lattice vectors
    20.000000000  0.000000000  0.000000000     0.050000000  0.000000000  0.000000000
     0.000000000 20.000000000  0.000000000     0.000000000  0.050000000  0.000000000
     0.000000000  0.000000000 21.126328287     0.000000000  0.000000000  0.047334302

  length of vectors
    20.000000000 20.000000000 21.126328287     0.050000000  0.050000000  0.047334302

  position of ions in fractional coordinates (direct lattice)
     0.500000000  0.500000000  0.472995041
     0.500000000  0.500000000  0.527004959

  ion indices of the primitive-cell ions
   primitive index   ion index
                 1           1
                 2           2

----------------------------------------------------------------------------------------



 KPOINTS: pymatgen v2020.8.13 with grid density = 

Automatic generation of k-mesh.
 Grid dimensions read from file:
 generate k-points for:    1    1    1

 Generating k-lattice:

  Cartesian coordinates                     Fractional coordinates (reciprocal lattice)
     0.050000000  0.000000000  0.000000000     1.000000000  0.000000000  0.000000000
     0.000000000  0.050000000  0.000000000     0.000000000  1.000000000  0.000000000
     0.000000000  0.000000000  0.047334302     0.000000000  0.000000000  1.000000000

  Length of vectors
     0.050000000  0.050000000  0.047334302

  Shift w.r.t. Gamma in fractional coordinates (k-lattice)
     0.000000000  0.000000000  0.000000000

 
 Subroutine IBZKPT returns following result:
 ===========================================
 
 Found      1 irreducible k-points:
 
 Following reciprocal coordinates:
            Coordinates               Weight
  0.000000  0.000000  0.000000      1.000000
 
 Following cartesian coordinates:
            Coordinates               Weight
  0.000000  0.000000  0.000000      1.000000
 
 
 Subroutine IBZKPT_HF returns following result:
 ==============================================
 
 Found      1 k-points in 1st BZ
 the following      1 k-points will be used (e.g. in the exchange kernel)
 Following reciprocal coordinates:   # in IRBZ
  0.000000  0.000000  0.000000    1.00000000   1 t-inv F


--------------------------------------------------------------------------------------------------------




 Dimension of arrays:
   k-points           NKPTS =      1   k-points in BZ     NKDIM =      1   number of bands    NBANDS=     64
   number of dos      NEDOS =    301   number of ions     NIONS =      2
   non local maximal  LDIM  =      4   non local SUM 2l+1 LMDIM =      8
   total plane-waves  NPLWV = ******
   max r-space proj   IRMAX =      1   max aug-charges    IRDMAX=   7273
   dimension x,y,z NGX =   160 NGY =  160 NGZ =  180
   dimension x,y,z NGXF=   320 NGYF=  320 NGZF=  360
   support grid    NGXF=   320 NGYF=  320 NGZF=  360
   ions per type =               1   1
   NGX,Y,Z   is equivalent  to a cutoff of  13.30, 13.30, 14.16 a.u.
   NGXF,Y,Z  is equivalent  to a cutoff of  26.60, 26.60, 28.33 a.u.

 SYSTEM =  MgO-rocksalt                            
 POSCAR =   C  O                                   

 Startparameter for this run:
   NWRITE =      2    write-flag & timer
   PREC   = accura    normal or accurate (medium, high low for compatibility)
   ISTART =      0    job   : 0-new  1-cont  2-samecut
   ICHARG =      2    charge: 1-file 2-atom 10-const
   ISPIN  =      1    spin polarized calculation?
   LNONCOLLINEAR =      F non collinear calculations
   LSORBIT =      F    spin-orbit coupling
   INIWAV =      1    electr: 0-lowe 1-rand  2-diag
   LASPH  =      T    aspherical Exc in radial PAW
 Electronic Relaxation 1
   ENCUT  =  600.0 eV  44.10 Ry    6.64 a.u.  39.94 39.94 42.19*2*pi/ulx,y,z
   ENINI  =  600.0     initial cutoff
   ENAUG  =  644.9 eV  augmentation charge cutoff
   NELM   =    200;   NELMIN=  8; NELMDL= -5     # of ELM steps 
   EDIFF  = 0.1E-07   stopping-criterion for ELM
   LREAL  =      F    real-space projection
   NLSPLINE    = F    spline interpolate recip. space projectors
   LCOMPAT=      F    compatible to vasp.4.4
   GGA_COMPAT  = T    GGA compatible to vasp.4.4-vasp.4.6
   LMAXPAW     = -100 max onsite density
   LMAXMIX     =    2 max onsite mixed and CHGCAR
   VOSKOWN=      0    Vosko Wilk Nusair interpolation
   ROPT   =    0.00000   0.00000
 Ionic relaxation
   EDIFFG = 0.1E-06   stopping-criterion for IOM
   NSW    =     61    number of steps for IOM
   NBLOCK =      1;   KBLOCK =     61    inner block; outer block 
   IBRION =      5    ionic relax: 0-MD 1-quasi-New 2-CG
   NFREE  =      2    steps in history (QN), initial steepest desc. (CG)
   ISIF   =      2    stress and relaxation
   IWAVPR =     11    prediction:  0-non 1-charg 2-wave 3-comb
   ISYM   =      0    0-nonsym 1-usesym 2-fastsym
   LCORR  =      T    Harris-Foulkes like correction to forces

   POTIM  = 0.0100    time-step for ionic-motion
   TEIN   =    0.0    initial temperature
   TEBEG  =    0.0;   TEEND  =   0.0 temperature during run
   SMASS  =  -3.00    Nose mass-parameter (am)
   estimated Nose-frequenzy (Omega)   =  0.10E-29 period in steps = 0.63E+48 mass=  -0.914E-26a.u.
   SCALEE = 1.0000    scale energy and forces
   NPACO  =    256;   APACO  = 10.0  distance and # of slots for P.C.
   PSTRESS=    0.0 pullay stress

  Mass of Ions in am
   POMASS =  12.01 16.00
  Ionic Valenz
   ZVAL   =   4.00  6.00
  Atomic Wigner-Seitz radii
   RWIGS  =  -1.00 -1.00
  virtual crystal weights 
   VCA    =   1.00  1.00
   NELECT =      10.0000    total number of electrons
   NUPDOWN=      -1.0000    fix difference up-down

 DOS related values:
   EMIN   =  10.00;   EMAX   =-10.00  energy-range for DOS
   EFERMI =   0.00
   ISMEAR =     0;   SIGMA  =   0.05  broadening in eV -4-tet -1-fermi 0-gaus

 Electronic relaxation 2 (details)
   IALGO  =     58    algorithm
   LDIAG  =      T    sub-space diagonalisation (order eigenvalues)
   LSUBROT=      F    optimize rotation matrix (better conditioning)
   TURBO    =      0    0=normal 1=particle mesh
   IRESTART =      0    0=no restart 2=restart with 2 vectors
   NREBOOT  =      0    no. of reboots
   NMIN     =      0    reboot dimension
   EREF     =   0.00    reference energy to select bands
   IMIX   =      4    mixing-type and parameters
     AMIX     =   0.40;   BMIX     =  1.00
     AMIX_MAG =   1.60;   BMIX_MAG =  1.00
     AMIN     =   0.10
     WC   =   100.;   INIMIX=   1;  MIXPRE=   1;  MAXMIX= -45

 Intra band minimization:
   WEIMIN = 0.0010     energy-eigenvalue tresh-hold
   EBREAK =  0.39E-10  absolut break condition
   DEPER  =   0.30     relativ break condition  

   TIME   =   0.40     timestep for ELM

  volume/ion in A,a.u.               =    4225.27     28513.50
  Fermi-wavevector in a.u.,A,eV,Ry     =   0.173160  0.327224  0.407961  0.029984
  Thomas-Fermi vector in A             =   0.887314

 Write flags
   LWAVE        =      F    write WAVECAR
   LDOWNSAMPLE  =      F    k-point downsampling of WAVECAR
   LCHARG       =      F    write CHGCAR
   LVTOT        =      F    write LOCPOT, total local potential
   LVHAR        =      F    write LOCPOT, Hartree potential only
   LELF         =      F    write electronic localiz. function (ELF)
   LORBIT       =      0    0 simple, 1 ext, 2 COOP (PROOUT), +10 PAW based schemes


 Dipole corrections
   LMONO  =      F    monopole corrections only (constant potential shift)
   LDIPOL =      T    correct potential (dipole corrections)
   IDIPOL =      4    1-x, 2-y, 3-z, 4-all directions 
   EPSILON=  1.0000000 bulk dielectric constant

 Exchange correlation treatment:
   GGA     =    MK    GGA type
   LEXCH   =    43    internal setting for exchange type
   LIBXC   =     F    Libxc                    
   VOSKOWN =     0    Vosko Wilk Nusair interpolation
   LHFCALC =     F    Hartree Fock is set to
   LHFONE  =     F    Hartree Fock one center treatment
   AEXX    =    0.0000 exact exchange contribution

 vdW DFT:
   LUSE_VDW   =     T    switch on vdW DFT
   Zab_VDW    =******    correlation parameter
   PARAM1     =0.1234
   PARAM2     =0.7114
   PARAM3     =0.0000
   -- rVV10 --
   BPARAM     = 6.3000
   CPARAM     = 0.0093

 Linear response parameters
   LEPSILON=     F    determine dielectric tensor
   LRPA    =     F    only Hartree local field effects (RPA)
   LNABLA  =     F    use nabla operator in PAW spheres
   LVEL    =     F    velocity operator in full k-point grid
   CSHIFT  =0.1000    complex shift for real part using Kramers Kronig
   OMEGAMAX=  -1.0    maximum frequency
   DEG_THRESHOLD= 0.2000000E-02 threshold for treating states as degnerate
   RTIME   =   -0.100 relaxation time in fs
  (WPLASMAI=    0.000 imaginary part of plasma frequency in eV, 0.658/RTIME)
   DFIELD  = 0.0000000 0.0000000 0.0000000 field for delta impulse in time

  Optional k-point grid parameters
   LKPOINTS_OPT  =     F    use optional k-point grid
   KPOINTS_OPT_MODE=     1    mode for optional k-point grid

 Orbital magnetization related:
   ORBITALMAG=     F  switch on orbital magnetization
   LCHIMAG   =     F  perturbation theory with respect to B field
   DQ        =  0.001000  dq finite difference perturbation B field
   LLRAUG    =     F  two centre corrections for induced B field



--------------------------------------------------------------------------------------------------------


 finite differences
 charge density and potential will be updated during run
 non-spin polarized calculation
 Conjugate gradient for all bands (Freysoldt, et al. PRB 79, 241103 (2009))
 preconditioned conjugated gradient                                        
 perform sub-space diagonalisation
    before iterative eigenvector-optimisation
 modified Broyden-mixing scheme, WC =      100.0
 initial mixing is a Kerker type mixing with AMIX =  0.4000 and BMIX =      1.0000
 Hartree-type preconditioning will be used
 using additional bands           59
 reciprocal scheme for non local part
 use partial core corrections
 no Harris-corrections to forces 
 use gradient corrections 
 use of overlap-Matrix (Vanderbilt PP)
 Gauss-broadening in eV      SIGMA  =   0.05


--------------------------------------------------------------------------------------------------------


  energy-cutoff  :      600.00
  volume of cell :     8450.53
      direct lattice vectors                 reciprocal lattice vectors
    20.000000000  0.000000000  0.000000000     0.050000000  0.000000000  0.000000000
     0.000000000 20.000000000  0.000000000     0.000000000  0.050000000  0.000000000
     0.000000000  0.000000000 21.126328287     0.000000000  0.000000000  0.047334302

  length of vectors
    20.000000000 20.000000000 21.126328287     0.050000000  0.050000000  0.047334302



 k-points in units of 2pi/SCALE and weight: pymatgen v2020.8.13 with grid density = 
   0.00000000  0.00000000  0.00000000       1.000

 k-points in reciprocal lattice and weights: pymatgen v2020.8.13 with grid density = 
   0.00000000  0.00000000  0.00000000       1.000

 position of ions in fractional coordinates (direct lattice) 
   0.50000000  0.50000000  0.47299504
   0.50000000  0.50000000  0.52700496

 position of ions in cartesian coordinates  (Angst):
  10.00000000 10.00000000  9.99264852
  10.00000000 10.00000000 11.13367977



--------------------------------------------------------------------------------------------------------


 use parallel FFT for orbitals z direction half grid
 k-point   1 :   0.0000 0.0000 0.0000  plane waves:  140949

 maximum and minimum number of plane-waves per node :     17623    17611

 maximum number of plane-waves:    140949
 maximum index in each direction: 
   IXMAX=   39   IYMAX=   39   IZMAX=   42
   IXMIN=  -39   IYMIN=  -39   IZMIN=    0


 parallel 3D FFT for wavefunctions:
    minimum data exchange during FFTs selected (reduces bandwidth)
 parallel 3D FFT for charge:
    minimum data exchange during FFTs selected (reduces bandwidth)


 total amount of memory used by VASP MPI-rank0    79043. kBytes
=======================================================================

   base      :      30000. kBytes
   nonl-proj :       2826. kBytes
   fftplans  :      15799. kBytes
   grid      :      29568. kBytes
   one-center:          1. kBytes
   wavefun   :        849. kBytes

     INWAV:  cpu time      0.0000: real time      0.0000
 Broyden mixing: mesh for mixing (old mesh)
   NGX = 79   NGY = 79   NGZ = 85
  (NGX  =320   NGY  =320   NGZ  =360)
  gives a total of 530485 points

 initial charge density was supplied:
 charge density of overlapping atoms calculated
 number of electron      10.0000000 magnetization 
 keeping initial charge density in first step


--------------------------------------------------------------------------------------------------------


 Maximum index for augmentation-charges            0 (set IRDMAX)


--------------------------------------------------------------------------------------------------------


 First call to EWALD:  gamma=   0.087
 Maximum number of real-space cells 3x 3x 3
 Maximum number of reciprocal cells 3x 3x 3

    FEWALD:  cpu time      0.0008: real time      0.0008


--------------------------------------- Iteration      1(   1)  ---------------------------------------


vdW kernel read from vdw_kernel.bindat
  0.0000  0.2424  0.5071  0.7962  1.1119  1.4567  1.8333  2.2446  2.6937  3.1842
  3.7199  4.3049  4.9438  5.6415  6.4036  7.2358  8.1446  9.1372 10.2212 11.4050
 12.6979 14.1099 15.6519 17.3360 19.1751 21.1837 23.3773 25.7729 28.3892 31.2465
 34.3669 37.7748 41.4965 45.5611 50.0000

    POTLOK:  cpu time      2.0961: real time      2.1027
    SETDIJ:  cpu time      0.0847: real time      0.0847
    TRIAL :  cpu time      0.2366: real time      0.2370
    CORREC:  cpu time      0.0010: real time      0.0010
    --------------------------------------------
      LOOP:  cpu time      2.4193: real time      2.4724

 eigenvalue-minimisations  :   192
 total energy-change (2. order) : 0.8990903E+02  (-0.2617559E+03)
 number of electron      10.0000000 magnetization 
 augmentation part       10.0000000 magnetization 

 DIPCOR: dipole corrections for dipol
 direction  1 min pos     1, direction  2 min pos     1, direction  3 min pos     1,
 dipolmoment          -0.000000     -0.000000      0.000002 electrons x Angstroem
 Tr[quadrupol]         5.891515

 energy correction for charged system         0.000000 eV
 dipol+quadrupol energy correction           -0.000000 eV
 added-field ion interaction         -0.000000 eV  (added to PSCEN)


 Free energy of the ion-electron system (eV)
  ---------------------------------------------------
  alpha Z        PSCENC =         0.05170769
  Ewald energy   TEWEN  =       202.78278476
  -Hartree energ DENC   =      -662.14325253
  -exchange      EXHF   =         0.00000000
  -V(xc)+E(xc)   XCENC  =        39.05299170
  PAW double counting   =       455.56623273     -457.41947929
  entropy T*S    EENTRO =        -0.00224917
  eigenvalues    EBANDS =       -70.03376268
  atomic energy  EATOM  =       582.05405637
  ---------------------------------------------------
  free energy    TOTEN  =        89.90902957 eV

  energy without entropy =       89.91127874  energy(sigma->0) =       89.91015416


--------------------------------------------------------------------------------------------------------




--------------------------------------- Iteration      1(   2)  ---------------------------------------


    TRIAL :  cpu time      0.3477: real time      0.3477
    CORREC:  cpu time      0.0006: real time      0.0006
    --------------------------------------------
      LOOP:  cpu time      0.3539: real time      0.3633

 eigenvalue-minimisations  :   256
 total energy-change (2. order) :-0.1004491E+03  (-0.1003708E+03)
 number of electron      10.0000000 magnetization 
 augmentation part       10.0000000 magnetization 

 DIPCOR: dipole corrections for dipol
 direction  1 min pos     1, direction  2 min pos     1, direction  3 min pos     1,
 dipolmoment          -0.000000     -0.000000      0.000002 electrons x Angstroem
 Tr[quadrupol]         5.891515

 energy correction for charged system         0.000000 eV
 dipol+quadrupol energy correction           -0.000000 eV
 added-field ion interaction         -0.000000 eV  (added to PSCEN)


 Free energy of the ion-electron system (eV)
  ---------------------------------------------------
  alpha Z        PSCENC =         0.05170769
  Ewald energy   TEWEN  =       202.78278476
  -Hartree energ DENC   =      -662.14325253
  -exchange      EXHF   =         0.00000000
  -V(xc)+E(xc)   XCENC  =        39.05299170
  PAW double counting   =       455.56623273     -457.41947929
  entropy T*S    EENTRO =        -0.00000000
  eigenvalues    EBANDS =      -170.48512980
  atomic energy  EATOM  =       582.05405637
  ---------------------------------------------------
  free energy    TOTEN  =       -10.54008837 eV

  energy without entropy =      -10.54008837  energy(sigma->0) =      -10.54008837


--------------------------------------------------------------------------------------------------------




--------------------------------------- Iteration      1(   3)  ---------------------------------------


    TRIAL :  cpu time      0.1420: real time      0.1420
    CORREC:  cpu time      0.0004: real time      0.0004
    --------------------------------------------
      LOOP:  cpu time      0.1484: real time      0.1575

 eigenvalue-minimisations  :   128
 total energy-change (2. order) :-0.2570090E+01  (-0.2570090E+01)
 number of electron      10.0000000 magnetization 
 augmentation part       10.0000000 magnetization 

 DIPCOR: dipole corrections for dipol
 direction  1 min pos     1, direction  2 min pos     1, direction  3 min pos     1,
 dipolmoment          -0.000000     -0.000000      0.000002 electrons x Angstroem
 Tr[quadrupol]         5.891515

 energy correction for charged system         0.000000 eV
 dipol+quadrupol energy correction           -0.000000 eV
 added-field ion interaction         -0.000000 eV  (added to PSCEN)


 Free energy of the ion-electron system (eV)
  ---------------------------------------------------
  alpha Z        PSCENC =         0.05170769
  Ewald energy   TEWEN  =       202.78278476
  -Hartree energ DENC   =      -662.14325253
  -exchange      EXHF   =         0.00000000
  -V(xc)+E(xc)   XCENC  =        39.05299170
  PAW double counting   =       455.56623273     -457.41947929
  entropy T*S    EENTRO =        -0.00000000
  eigenvalues    EBANDS =      -173.05521967
  atomic energy  EATOM  =       582.05405637
  ---------------------------------------------------
  free energy    TOTEN  =       -13.11017824 eV

  energy without entropy =      -13.11017824  energy(sigma->0) =      -13.11017824


--------------------------------------------------------------------------------------------------------




--------------------------------------- Iteration      1(   4)  ---------------------------------------


    TRIAL :  cpu time      0.2211: real time      0.2211
    CORREC:  cpu time      0.0002: real time      0.0002
    --------------------------------------------
      LOOP:  cpu time      0.2283: real time      0.2357

 eigenvalue-minimisations  :   192
 total energy-change (2. order) :-0.1418831E-01  (-0.1418831E-01)
 number of electron      10.0000000 magnetization 
 augmentation part       10.0000000 magnetization 

 DIPCOR: dipole corrections for dipol
 direction  1 min pos     1, direction  2 min pos     1, direction  3 min pos     1,
 dipolmoment          -0.000000     -0.000000      0.000002 electrons x Angstroem
 Tr[quadrupol]         5.891515

 energy correction for charged system         0.000000 eV
 dipol+quadrupol energy correction           -0.000000 eV
 added-field ion interaction         -0.000000 eV  (added to PSCEN)


 Free energy of the ion-electron system (eV)
  ---------------------------------------------------
  alpha Z        PSCENC =         0.05170769
  Ewald energy   TEWEN  =       202.78278476
  -Hartree energ DENC   =      -662.14325253
  -exchange      EXHF   =         0.00000000
  -V(xc)+E(xc)   XCENC  =        39.05299170
  PAW double counting   =       455.56623273     -457.41947929
  entropy T*S    EENTRO =        -0.00000000
  eigenvalues    EBANDS =      -173.06940798
  atomic energy  EATOM  =       582.05405637
  ---------------------------------------------------
  free energy    TOTEN  =       -13.12436655 eV

  energy without entropy =      -13.12436655  energy(sigma->0) =      -13.12436655


--------------------------------------------------------------------------------------------------------




--------------------------------------- Iteration      1(   5)  ---------------------------------------


    TRIAL :  cpu time      0.1411: real time      0.1411
    CORREC:  cpu time      0.0002: real time      0.0002
    CHARGE:  cpu time      0.0625: real time      0.0631
    --------------------------------------------
      LOOP:  cpu time      0.2183: real time      0.2192

 eigenvalue-minimisations  :   128
 total energy-change (2. order) :-0.4154094E-05  (-0.4154064E-05)
 number of electron       9.9999999 magnetization 
 augmentation part        0.7380801 magnetization 

 DIPCOR: dipole corrections for dipol
 direction  1 min pos     1, direction  2 min pos     1, direction  3 min pos     1,
 dipolmoment          -0.000000     -0.000000      0.000002 electrons x Angstroem
 Tr[quadrupol]         5.891515

 energy correction for charged system         0.000000 eV
 dipol+quadrupol energy correction           -0.000000 eV
 added-field ion interaction         -0.000000 eV  (added to PSCEN)


 Free energy of the ion-electron system (eV)
  ---------------------------------------------------
  alpha Z        PSCENC =         0.05170769
  Ewald energy   TEWEN  =       202.78278476
  -Hartree energ DENC   =      -662.14325253
  -exchange      EXHF   =         0.00000000
  -V(xc)+E(xc)   XCENC  =        39.05299170
  PAW double counting   =       455.56623273     -457.41947929
  entropy T*S    EENTRO =        -0.00000000
  eigenvalues    EBANDS =      -173.06941213
  atomic energy  EATOM  =       582.05405637
  ---------------------------------------------------
  free energy    TOTEN  =       -13.12437071 eV

  energy without entropy =      -13.12437071  energy(sigma->0) =      -13.12437071


--------------------------------------------------------------------------------------------------------




--------------------------------------- Iteration      1(   6)  ---------------------------------------


    POTLOK:  cpu time      1.4975: real time      1.4976
    SETDIJ:  cpu time      0.0855: real time      0.0855
    TRIAL :  cpu time      6.4494: real time      6.4506
    CORREC:  cpu time      1.6798: real time      1.6808
    CHARGE:  cpu time      0.0436: real time      0.0436
    --------------------------------------------
      LOOP:  cpu time      9.7697: real time      9.7723

 eigenvalue-minimisations  :     0
 total energy-change (2. order) : 0.1890562E+01  (-0.8787466E+00)
 number of electron       9.9999999 magnetization 
 augmentation part        0.6848987 magnetization 

 DIPCOR: dipole corrections for dipol
 direction  1 min pos     1, direction  2 min pos     1, direction  3 min pos     1,
 dipolmoment           0.000001     -0.000002      0.051570 electrons x Angstroem
 Tr[quadrupol]         5.631342

 energy correction for charged system         0.000000 eV
 dipol+quadrupol energy correction           -0.000008 eV
 added-field ion interaction         -0.000351 eV  (added to PSCEN)


 Free energy of the ion-electron system (eV)
  ---------------------------------------------------
  alpha Z        PSCENC =         0.05060583
  Ewald energy   TEWEN  =       202.78278476
  -Hartree energ DENC   =      -710.26595954
  -exchange      EXHF   =         0.00000000
  -V(xc)+E(xc)   XCENC  =        41.73031278
  PAW double counting   =       846.55477368     -848.94599552
  entropy T*S    EENTRO =        -0.00000000
  eigenvalues    EBANDS =      -125.19438696
  atomic energy  EATOM  =       582.05405637
  ---------------------------------------------------
  free energy    TOTEN  =       -11.23380861 eV

  energy without entropy =      -11.23380861  energy(sigma->0) =      -11.23380861


--------------------------------------------------------------------------------------------------------




--------------------------------------- Iteration      1(   7)  ---------------------------------------


    POTLOK:  cpu time      1.5024: real time      1.5025
    SETDIJ:  cpu time      0.0855: real time      0.0855
    TRIAL :  cpu time      0.0980: real time      0.0980
    CORREC:  cpu time      1.6822: real time      1.6823
    CHARGE:  cpu time      0.0433: real time      0.0433
    --------------------------------------------
      LOOP:  cpu time      3.4164: real time      3.4262

 eigenvalue-minimisations  :     0
 total energy-change (2. order) :-0.8868768E+00  (-0.1159716E+00)
 number of electron       9.9999999 magnetization 
 augmentation part        0.6655023 magnetization 

 DIPCOR: dipole corrections for dipol
 direction  1 min pos     1, direction  2 min pos     1, direction  3 min pos     1,
 dipolmoment           0.000000     -0.000001      0.030980 electrons x Angstroem
 Tr[quadrupol]         5.335033

 energy correction for charged system         0.000000 eV
 dipol+quadrupol energy correction           -0.000003 eV
 added-field ion interaction         -0.000211 eV  (added to PSCEN)


 Free energy of the ion-electron system (eV)
  ---------------------------------------------------
  alpha Z        PSCENC =         0.05111358
  Ewald energy   TEWEN  =       202.78278476
  -Hartree energ DENC   =      -686.34861266
  -exchange      EXHF   =         0.00000000
  -V(xc)+E(xc)   XCENC  =        40.42898881
  PAW double counting   =       826.13337844     -828.29579933
  entropy T*S    EENTRO =        -0.00000000
  eigenvalues    EBANDS =      -148.92659540
  atomic energy  EATOM  =       582.05405637
  ---------------------------------------------------
  free energy    TOTEN  =       -12.12068543 eV

  energy without entropy =      -12.12068543  energy(sigma->0) =      -12.12068543


--------------------------------------------------------------------------------------------------------




--------------------------------------- Iteration      1(   8)  ---------------------------------------


    POTLOK:  cpu time      1.4995: real time      1.4996
    SETDIJ:  cpu time      0.0857: real time      0.0857
    TRIAL :  cpu time      0.0979: real time      0.0979
    CORREC:  cpu time      1.6778: real time      1.6779
    CHARGE:  cpu time      0.0431: real time      0.0431
    --------------------------------------------
      LOOP:  cpu time      3.4190: real time      3.4194

 eigenvalue-minimisations  :     0
 total energy-change (2. order) :-0.1159485E+00  (-0.4077027E-01)
 number of electron       9.9999999 magnetization 
 augmentation part        0.6620187 magnetization 

 DIPCOR: dipole corrections for dipol
 direction  1 min pos     1, direction  2 min pos     1, direction  3 min pos     1,
 dipolmoment           0.000000     -0.000000     -0.016454 electrons x Angstroem
 Tr[quadrupol]         5.320898

 energy correction for charged system         0.000000 eV
 dipol+quadrupol energy correction           -0.000001 eV
 added-field ion interaction          0.000112 eV  (added to PSCEN)


 Free energy of the ion-electron system (eV)
  ---------------------------------------------------
  alpha Z        PSCENC =         0.05155720
  Ewald energy   TEWEN  =       202.78278476
  -Hartree energ DENC   =      -684.33760105
  -exchange      EXHF   =         0.00000000
  -V(xc)+E(xc)   XCENC  =        40.31796008
  PAW double counting   =       830.29294872     -832.32495287
  entropy T*S    EENTRO =        -0.00000000
  eigenvalues    EBANDS =      -151.07338718
  atomic energy  EATOM  =       582.05405637
  ---------------------------------------------------
  free energy    TOTEN  =       -12.23663397 eV

  energy without entropy =      -12.23663397  energy(sigma->0) =      -12.23663397


--------------------------------------------------------------------------------------------------------




--------------------------------------- Iteration      1(   9)  ---------------------------------------


    POTLOK:  cpu time      1.5020: real time      1.5021
    SETDIJ:  cpu time      0.0856: real time      0.0856
    TRIAL :  cpu time      0.0976: real time      0.0976
    CORREC:  cpu time      1.6791: real time      1.6800
    CHARGE:  cpu time      0.0431: real time      0.0431
    --------------------------------------------
      LOOP:  cpu time      3.4134: real time      3.4237

 eigenvalue-minimisations  :     0
 total energy-change (2. order) :-0.4076336E-01  (-0.1201653E-01)
 number of electron       9.9999999 magnetization 
 augmentation part        0.6621694 magnetization 

 DIPCOR: dipole corrections for dipol
 direction  1 min pos     1, direction  2 min pos     1, direction  3 min pos     1,
 dipolmoment           0.000000     -0.000000     -0.027999 electrons x Angstroem
 Tr[quadrupol]         5.331212

 energy correction for charged system         0.000000 eV
 dipol+quadrupol energy correction           -0.000002 eV
 added-field ion interaction          0.000191 eV  (added to PSCEN)


 Free energy of the ion-electron system (eV)
  ---------------------------------------------------
  alpha Z        PSCENC =         0.05184001
  Ewald energy   TEWEN  =       202.78278476
  -Hartree energ DENC   =      -683.94461606
  -exchange      EXHF   =         0.00000000
  -V(xc)+E(xc)   XCENC  =        40.29966171
  PAW double counting   =       833.71965964     -835.71898374
  entropy T*S    EENTRO =        -0.00000000
  eigenvalues    EBANDS =      -151.52180002
  atomic energy  EATOM  =       582.05405637
  ---------------------------------------------------
  free energy    TOTEN  =       -12.27739733 eV

  energy without entropy =      -12.27739733  energy(sigma->0) =      -12.27739733


--------------------------------------------------------------------------------------------------------




--------------------------------------- Iteration      1(  10)  ---------------------------------------


    POTLOK:  cpu time      1.5010: real time      1.5012
    SETDIJ:  cpu time      0.0856: real time      0.0856
    TRIAL :  cpu time      0.0979: real time      0.0979
    CORREC:  cpu time      1.6930: real time      1.6932
    CHARGE:  cpu time      0.0428: real time      0.0428
    --------------------------------------------
      LOOP:  cpu time      3.4348: real time      3.4356

 eigenvalue-minimisations  :     0
 total energy-change (2. order) :-0.1200270E-01  (-0.5035726E-02)
 number of electron       9.9999999 magnetization 
 augmentation part        0.6619423 magnetization 

 DIPCOR: dipole corrections for dipol
 direction  1 min pos     1, direction  2 min pos     1, direction  3 min pos     1,
 dipolmoment           0.000000     -0.000000     -0.031350 electrons x Angstroem
 Tr[quadrupol]         5.353963

 energy correction for charged system         0.000000 eV
 dipol+quadrupol energy correction           -0.000003 eV
 added-field ion interaction          0.000214 eV  (added to PSCEN)


 Free energy of the ion-electron system (eV)
  ---------------------------------------------------
  alpha Z        PSCENC =         0.05191745
  Ewald energy   TEWEN  =       202.78278476
  -Hartree energ DENC   =      -683.54916764
  -exchange      EXHF   =         0.00000000
  -V(xc)+E(xc)   XCENC  =        40.28296717
  PAW double counting   =       834.27527431     -836.27261815
  entropy T*S    EENTRO =        -0.00000000
  eigenvalues    EBANDS =      -151.91461431
  atomic energy  EATOM  =       582.05405637
  ---------------------------------------------------
  free energy    TOTEN  =       -12.28940003 eV

  energy without entropy =      -12.28940003  energy(sigma->0) =      -12.28940003


--------------------------------------------------------------------------------------------------------




--------------------------------------- Iteration      1(  11)  ---------------------------------------


    POTLOK:  cpu time      1.5029: real time      1.5030
    SETDIJ:  cpu time      0.0854: real time      0.0854
    TRIAL :  cpu time      0.0978: real time      0.0978
    CORREC:  cpu time      1.6772: real time      1.6774
    CHARGE:  cpu time      0.0435: real time      0.0435
    --------------------------------------------
      LOOP:  cpu time      3.4120: real time      3.4220

 eigenvalue-minimisations  :     0
 total energy-change (2. order) :-0.5025579E-02  (-0.1992999E-02)
 number of electron       9.9999999 magnetization 
 augmentation part        0.6620167 magnetization 

 DIPCOR: dipole corrections for dipol
 direction  1 min pos     1, direction  2 min pos     1, direction  3 min pos     1,
 dipolmoment           0.000000     -0.000000     -0.029787 electrons x Angstroem
 Tr[quadrupol]         5.373456

 energy correction for charged system         0.000000 eV
 dipol+quadrupol energy correction           -0.000003 eV
 added-field ion interaction          0.000203 eV  (added to PSCEN)


 Free energy of the ion-electron system (eV)
  ---------------------------------------------------
  alpha Z        PSCENC =         0.05191870
  Ewald energy   TEWEN  =       202.78278476
  -Hartree energ DENC   =      -683.26559365
  -exchange      EXHF   =         0.00000000
  -V(xc)+E(xc)   XCENC  =        40.27035037
  PAW double counting   =       833.66163693     -835.65701343
  entropy T*S    EENTRO =        -0.00000000
  eigenvalues    EBANDS =      -152.19256565
  atomic energy  EATOM  =       582.05405637
  ---------------------------------------------------
  free energy    TOTEN  =       -12.29442561 eV

  energy without entropy =      -12.29442561  energy(sigma->0) =      -12.29442561


--------------------------------------------------------------------------------------------------------




--------------------------------------- Iteration      1(  12)  ---------------------------------------


    POTLOK:  cpu time      1.4996: real time      1.4998
    SETDIJ:  cpu time      0.0855: real time      0.0855
    TRIAL :  cpu time      0.0966: real time      0.0977
    CORREC:  cpu time      1.6701: real time      1.6703
    CHARGE:  cpu time      0.0440: real time      0.0440
    --------------------------------------------
      LOOP:  cpu time      3.4102: real time      3.4119

 eigenvalue-minimisations  :     0
 total energy-change (2. order) :-0.1989402E-02  (-0.6110254E-03)
 number of electron       9.9999999 magnetization 
 augmentation part        0.6620792 magnetization 

 DIPCOR: dipole corrections for dipol
 direction  1 min pos     1, direction  2 min pos     1, direction  3 min pos     1,
 dipolmoment          -0.000000     -0.000000     -0.027685 electrons x Angstroem
 Tr[quadrupol]         5.383369

 energy correction for charged system         0.000000 eV
 dipol+quadrupol energy correction           -0.000002 eV
 added-field ion interaction          0.000189 eV  (added to PSCEN)


 Free energy of the ion-electron system (eV)
  ---------------------------------------------------
  alpha Z        PSCENC =         0.05190292
  Ewald energy   TEWEN  =       202.78278476
  -Hartree energ DENC   =      -683.04957707
  -exchange      EXHF   =         0.00000000
  -V(xc)+E(xc)   XCENC  =        40.25823308
  PAW double counting   =       832.74105731     -834.73824053
  entropy T*S    EENTRO =        -0.00000000
  eigenvalues    EBANDS =      -152.39663185
  atomic energy  EATOM  =       582.05405637
  ---------------------------------------------------
  free energy    TOTEN  =       -12.29641501 eV

  energy without entropy =      -12.29641501  energy(sigma->0) =      -12.29641501


--------------------------------------------------------------------------------------------------------




--------------------------------------- Iteration      1(  13)  ---------------------------------------


    POTLOK:  cpu time      1.4955: real time      1.4957
    SETDIJ:  cpu time      0.0854: real time      0.0854
    TRIAL :  cpu time      0.0977: real time      0.0977
    CORREC:  cpu time      1.6709: real time      1.6710
    CHARGE:  cpu time      0.0431: real time      0.0431
    --------------------------------------------
      LOOP:  cpu time      3.4073: real time      3.4079

 eigenvalue-minimisations  :     0
 total energy-change (2. order) :-0.6109419E-03  (-0.1508998E-03)
 number of electron       9.9999999 magnetization 
 augmentation part        0.6620632 magnetization 

 DIPCOR: dipole corrections for dipol
 direction  1 min pos     1, direction  2 min pos     1, direction  3 min pos     1,
 dipolmoment          -0.000000     -0.000000     -0.026458 electrons x Angstroem
 Tr[quadrupol]         5.386346

 energy correction for charged system         0.000000 eV
 dipol+quadrupol energy correction           -0.000002 eV
 added-field ion interaction          0.000180 eV  (added to PSCEN)


 Free energy of the ion-electron system (eV)
  ---------------------------------------------------
  alpha Z        PSCENC =         0.05189086
  Ewald energy   TEWEN  =       202.78278476
  -Hartree energ DENC   =      -682.95221476
  -exchange      EXHF   =         0.00000000
  -V(xc)+E(xc)   XCENC  =        40.25192518
  PAW double counting   =       832.18015093     -834.17924610
  entropy T*S    EENTRO =        -0.00000000
  eigenvalues    EBANDS =      -152.48637319
  atomic energy  EATOM  =       582.05405637
  ---------------------------------------------------
  free energy    TOTEN  =       -12.29702595 eV

  energy without entropy =      -12.29702595  energy(sigma->0) =      -12.29702595


--------------------------------------------------------------------------------------------------------




--------------------------------------- Iteration      1(  14)  ---------------------------------------


    POTLOK:  cpu time      1.4967: real time      1.4968
    SETDIJ:  cpu time      0.0854: real time      0.0854
    TRIAL :  cpu time      0.0969: real time      0.0970
    CORREC:  cpu time      1.6666: real time      1.6667
    CHARGE:  cpu time      0.0428: real time      0.0428
    --------------------------------------------
      LOOP:  cpu time      3.4023: real time      3.4029

 eigenvalue-minimisations  :     0
 total energy-change (2. order) :-0.1509718E-03  (-0.3570581E-04)
 number of electron       9.9999999 magnetization 
 augmentation part        0.6620425 magnetization 

 DIPCOR: dipole corrections for dipol
 direction  1 min pos     1, direction  2 min pos     1, direction  3 min pos     1,
 dipolmoment           0.000000     -0.000000     -0.025949 electrons x Angstroem
 Tr[quadrupol]         5.387219

 energy correction for charged system         0.000000 eV
 dipol+quadrupol energy correction           -0.000002 eV
 added-field ion interaction          0.000177 eV  (added to PSCEN)


 Free energy of the ion-electron system (eV)
  ---------------------------------------------------
  alpha Z        PSCENC =         0.05188414
  Ewald energy   TEWEN  =       202.78278476
  -Hartree energ DENC   =      -682.93457499
  -exchange      EXHF   =         0.00000000
  -V(xc)+E(xc)   XCENC  =        40.25048930
  PAW double counting   =       831.91261106     -833.91229235
  entropy T*S    EENTRO =        -0.00000000
  eigenvalues    EBANDS =      -152.50213520
  atomic energy  EATOM  =       582.05405637
  ---------------------------------------------------
  free energy    TOTEN  =       -12.29717692 eV

  energy without entropy =      -12.29717692  energy(sigma->0) =      -12.29717692


--------------------------------------------------------------------------------------------------------




--------------------------------------- Iteration      1(  15)  ---------------------------------------


    POTLOK:  cpu time      1.4973: real time      1.4978
    SETDIJ:  cpu time      0.0856: real time      0.0856
    TRIAL :  cpu time      0.0982: real time      0.0982
    CORREC:  cpu time      1.6740: real time      1.6742
    CHARGE:  cpu time      0.0436: real time      0.0436
    --------------------------------------------
      LOOP:  cpu time      3.4058: real time      3.4141

 eigenvalue-minimisations  :     0
 total energy-change (2. order) :-0.3573685E-04  (-0.8724661E-05)
 number of electron       9.9999999 magnetization 
 augmentation part        0.6620209 magnetization 

 DIPCOR: dipole corrections for dipol
 direction  1 min pos     1, direction  2 min pos     1, direction  3 min pos     1,
 dipolmoment           0.000000     -0.000000     -0.025820 electrons x Angstroem
 Tr[quadrupol]         5.387360

 energy correction for charged system         0.000000 eV
 dipol+quadrupol energy correction           -0.000002 eV
 added-field ion interaction          0.000176 eV  (added to PSCEN)


 Free energy of the ion-electron system (eV)
  ---------------------------------------------------
  alpha Z        PSCENC =         0.05188174
  Ewald energy   TEWEN  =       202.78278476
  -Hartree energ DENC   =      -682.93699079
  -exchange      EXHF   =         0.00000000
  -V(xc)+E(xc)   XCENC  =        40.25044087
  PAW double counting   =       831.78425615     -833.78403705
  entropy T*S    EENTRO =        -0.00000000
  eigenvalues    EBANDS =      -152.49960471
  atomic energy  EATOM  =       582.05405637
  ---------------------------------------------------
  free energy    TOTEN  =       -12.29721266 eV

  energy without entropy =      -12.29721266  energy(sigma->0) =      -12.29721266


--------------------------------------------------------------------------------------------------------




--------------------------------------- Iteration      1(  16)  ---------------------------------------


    POTLOK:  cpu time      1.4915: real time      1.4917
    SETDIJ:  cpu time      0.0855: real time      0.0855
    TRIAL :  cpu time      0.0969: real time      0.0969
    CORREC:  cpu time      1.6716: real time      1.6717
    CHARGE:  cpu time      0.0430: real time      0.0430
    --------------------------------------------
      LOOP:  cpu time      3.3935: real time      3.4036

 eigenvalue-minimisations  :     0
 total energy-change (2. order) :-0.8744216E-05  (-0.2516167E-05)
 number of electron       9.9999999 magnetization 
 augmentation part        0.6620266 magnetization 

 DIPCOR: dipole corrections for dipol
 direction  1 min pos     1, direction  2 min pos     1, direction  3 min pos     1,
 dipolmoment           0.000000      0.000000     -0.025805 electrons x Angstroem
 Tr[quadrupol]         5.387184

 energy correction for charged system         0.000000 eV
 dipol+quadrupol energy correction           -0.000002 eV
 added-field ion interaction          0.000176 eV  (added to PSCEN)


 Free energy of the ion-electron system (eV)
  ---------------------------------------------------
  alpha Z        PSCENC =         0.05188152
  Ewald energy   TEWEN  =       202.78278476
  -Hartree energ DENC   =      -682.93630337
  -exchange      EXHF   =         0.00000000
  -V(xc)+E(xc)   XCENC  =        40.25033804
  PAW double counting   =       831.72516492     -833.72493563
  entropy T*S    EENTRO =        -0.00000000
  eigenvalues    EBANDS =      -152.50020803
  atomic energy  EATOM  =       582.05405637
  ---------------------------------------------------
  free energy    TOTEN  =       -12.29722140 eV

  energy without entropy =      -12.29722140  energy(sigma->0) =      -12.29722140


--------------------------------------------------------------------------------------------------------




--------------------------------------- Iteration      1(  17)  ---------------------------------------


    POTLOK:  cpu time      1.4916: real time      1.4917
    SETDIJ:  cpu time      0.0854: real time      0.0854
    TRIAL :  cpu time      0.0970: real time      0.0971
    CORREC:  cpu time      1.6710: real time      1.6712
    CHARGE:  cpu time      0.0431: real time      0.0432
    --------------------------------------------
      LOOP:  cpu time      3.3950: real time      3.4040

 eigenvalue-minimisations  :     0
 total energy-change (2. order) :-0.2530169E-05  (-0.7755476E-06)
 number of electron       9.9999999 magnetization 
 augmentation part        0.6620366 magnetization 

 DIPCOR: dipole corrections for dipol
 direction  1 min pos     1, direction  2 min pos     1, direction  3 min pos     1,
 dipolmoment           0.000000      0.000000     -0.025796 electrons x Angstroem
 Tr[quadrupol]         5.386988

 energy correction for charged system         0.000000 eV
 dipol+quadrupol energy correction           -0.000002 eV
 added-field ion interaction          0.000176 eV  (added to PSCEN)


 Free energy of the ion-electron system (eV)
  ---------------------------------------------------
  alpha Z        PSCENC =         0.05188148
  Ewald energy   TEWEN  =       202.78278476
  -Hartree energ DENC   =      -682.94072736
  -exchange      EXHF   =         0.00000000
  -V(xc)+E(xc)   XCENC  =        40.25055856
  PAW double counting   =       831.70824491     -833.70807236
  entropy T*S    EENTRO =        -0.00000000
  eigenvalues    EBANDS =      -152.49595029
  atomic energy  EATOM  =       582.05405637
  ---------------------------------------------------
  free energy    TOTEN  =       -12.29722394 eV

  energy without entropy =      -12.29722394  energy(sigma->0) =      -12.29722394


--------------------------------------------------------------------------------------------------------




--------------------------------------- Iteration      1(  18)  ---------------------------------------


    POTLOK:  cpu time      1.4981: real time      1.4982
    SETDIJ:  cpu time      0.0854: real time      0.0854
    TRIAL :  cpu time      0.0981: real time      0.0981
    CORREC:  cpu time      1.6638: real time      1.6639
    CHARGE:  cpu time      0.0440: real time      0.0440
    --------------------------------------------
      LOOP:  cpu time      3.3950: real time      3.4040

 eigenvalue-minimisations  :     0
 total energy-change (2. order) :-0.7856171E-06  (-0.2370493E-06)
 number of electron       9.9999999 magnetization 
 augmentation part        0.6620433 magnetization 

 DIPCOR: dipole corrections for dipol
 direction  1 min pos     1, direction  2 min pos     1, direction  3 min pos     1,
 dipolmoment           0.000000      0.000000     -0.025792 electrons x Angstroem
 Tr[quadrupol]         5.386856

 energy correction for charged system         0.000000 eV
 dipol+quadrupol energy correction           -0.000002 eV
 added-field ion interaction          0.000176 eV  (added to PSCEN)


 Free energy of the ion-electron system (eV)
  ---------------------------------------------------
  alpha Z        PSCENC =         0.05188142
  Ewald energy   TEWEN  =       202.78278476
  -Hartree energ DENC   =      -682.94296488
  -exchange      EXHF   =         0.00000000
  -V(xc)+E(xc)   XCENC  =        40.25068671
  PAW double counting   =       831.70939016     -833.70927976
  entropy T*S    EENTRO =        -0.00000000
  eigenvalues    EBANDS =      -152.49377949
  atomic energy  EATOM  =       582.05405637
  ---------------------------------------------------
  free energy    TOTEN  =       -12.29722472 eV

  energy without entropy =      -12.29722472  energy(sigma->0) =      -12.29722472


--------------------------------------------------------------------------------------------------------




--------------------------------------- Iteration      1(  19)  ---------------------------------------


    POTLOK:  cpu time      1.4926: real time      1.4927
    SETDIJ:  cpu time      0.0855: real time      0.0855
    TRIAL :  cpu time      0.0974: real time      0.0974
    CORREC:  cpu time      1.6705: real time      1.6706
    CHARGE:  cpu time      0.0433: real time      0.0433
    --------------------------------------------
      LOOP:  cpu time      3.3948: real time      3.4039

 eigenvalue-minimisations  :     0
 total energy-change (2. order) :-0.2391424E-06  (-0.7581197E-07)
 number of electron       9.9999999 magnetization 
 augmentation part        0.6620488 magnetization 

 DIPCOR: dipole corrections for dipol
 direction  1 min pos     1, direction  2 min pos     1, direction  3 min pos     1,
 dipolmoment           0.000000      0.000000     -0.025789 electrons x Angstroem
 Tr[quadrupol]         5.386770

 energy correction for charged system         0.000000 eV
 dipol+quadrupol energy correction           -0.000002 eV
 added-field ion interaction          0.000176 eV  (added to PSCEN)


 Free energy of the ion-electron system (eV)
  ---------------------------------------------------
  alpha Z        PSCENC =         0.05188140
  Ewald energy   TEWEN  =       202.78278476
  -Hartree energ DENC   =      -682.94396806
  -exchange      EXHF   =         0.00000000
  -V(xc)+E(xc)   XCENC  =        40.25075410
  PAW double counting   =       831.71890598     -833.71883635
  entropy T*S    EENTRO =        -0.00000000
  eigenvalues    EBANDS =      -152.49280315
  atomic energy  EATOM  =       582.05405637
  ---------------------------------------------------
  free energy    TOTEN  =       -12.29722496 eV

  energy without entropy =      -12.29722496  energy(sigma->0) =      -12.29722496


--------------------------------------------------------------------------------------------------------




--------------------------------------- Iteration      1(  20)  ---------------------------------------


    POTLOK:  cpu time      1.4849: real time      1.4850
    SETDIJ:  cpu time      0.0855: real time      0.0856
    TRIAL :  cpu time      0.0971: real time      0.0971
    CORREC:  cpu time      1.6707: real time      1.6709
    CHARGE:  cpu time      0.0433: real time      0.0433
    --------------------------------------------
      LOOP:  cpu time      3.3873: real time      3.3972

 eigenvalue-minimisations  :     0
 total energy-change (2. order) :-0.7374007E-07  (-0.2193322E-07)
 number of electron       9.9999999 magnetization 
 augmentation part        0.6620511 magnetization 

 DIPCOR: dipole corrections for dipol
 direction  1 min pos     1, direction  2 min pos     1, direction  3 min pos     1,
 dipolmoment          -0.000000      0.000000     -0.025787 electrons x Angstroem
 Tr[quadrupol]         5.386724

 energy correction for charged system         0.000000 eV
 dipol+quadrupol energy correction           -0.000002 eV
 added-field ion interaction          0.000176 eV  (added to PSCEN)


 Free energy of the ion-electron system (eV)
  ---------------------------------------------------
  alpha Z        PSCENC =         0.05188138
  Ewald energy   TEWEN  =       202.78278476
  -Hartree energ DENC   =      -682.94505884
  -exchange      EXHF   =         0.00000000
  -V(xc)+E(xc)   XCENC  =        40.25082065
  PAW double counting   =       831.73038733     -833.73034749
  entropy T*S    EENTRO =        -0.00000000
  eigenvalues    EBANDS =      -152.49174920
  atomic energy  EATOM  =       582.05405637
  ---------------------------------------------------
  free energy    TOTEN  =       -12.29722503 eV

  energy without entropy =      -12.29722503  energy(sigma->0) =      -12.29722503


--------------------------------------------------------------------------------------------------------




--------------------------------------- Iteration      1(  21)  ---------------------------------------


    POTLOK:  cpu time      1.4954: real time      1.4959
    SETDIJ:  cpu time      0.0855: real time      0.0855
    TRIAL :  cpu time      0.0969: real time      0.0970
    CORREC:  cpu time      1.6695: real time      1.6696
    CHARGE:  cpu time      0.0432: real time      0.0432
    --------------------------------------------
      LOOP:  cpu time      3.4052: real time      3.4060

 eigenvalue-minimisations  :     0
 total energy-change (2. order) :-0.2036199E-07  (-0.6799084E-08)
 number of electron       9.9999999 magnetization 
 augmentation part        0.6620523 magnetization 

 DIPCOR: dipole corrections for dipol
 direction  1 min pos     1, direction  2 min pos     1, direction  3 min pos     1,
 dipolmoment          -0.000000     -0.000000     -0.025785 electrons x Angstroem
 Tr[quadrupol]         5.386712

 energy correction for charged system         0.000000 eV
 dipol+quadrupol energy correction           -0.000002 eV
 added-field ion interaction          0.000176 eV  (added to PSCEN)


 Free energy of the ion-electron system (eV)
  ---------------------------------------------------
  alpha Z        PSCENC =         0.05188137
  Ewald energy   TEWEN  =       202.78278476
  -Hartree energ DENC   =      -682.94523938
  -exchange      EXHF   =         0.00000000
  -V(xc)+E(xc)   XCENC  =        40.25083304
  PAW double counting   =       831.73788661     -833.73785995
  entropy T*S    EENTRO =        -0.00000000
  eigenvalues    EBANDS =      -152.49156786
  atomic energy  EATOM  =       582.05405637
  ---------------------------------------------------
  free energy    TOTEN  =       -12.29722505 eV

  energy without entropy =      -12.29722505  energy(sigma->0) =      -12.29722505


--------------------------------------------------------------------------------------------------------




--------------------------------------- Iteration      1(  22)  ---------------------------------------


    POTLOK:  cpu time      1.4947: real time      1.4948
    SETDIJ:  cpu time      0.0855: real time      0.0855
    TRIAL :  cpu time      0.0972: real time      0.0972
    CORREC:  cpu time      1.6689: real time      1.6690
    EDDIAG:  cpu time      0.0543: real time      0.0545
    CHARGE:  cpu time      0.0449: real time      0.0449
    --------------------------------------------
      LOOP:  cpu time      3.4512: real time      3.4600

 eigenvalue-minimisations  :     0
 total energy-change (2. order) :-0.5464187E-08  (-0.2174348E-08)
 number of electron       9.9999999 magnetization 
 augmentation part        0.6620528 magnetization 

 DIPCOR: dipole corrections for dipol
 direction  1 min pos     1, direction  2 min pos     1, direction  3 min pos     1,
 dipolmoment           0.000000     -0.000000     -0.025785 electrons x Angstroem
 Tr[quadrupol]         5.386712

 energy correction for charged system         0.000000 eV
 dipol+quadrupol energy correction           -0.000002 eV
 added-field ion interaction          0.000176 eV  (added to PSCEN)


 Free energy of the ion-electron system (eV)
  ---------------------------------------------------
  alpha Z        PSCENC =         0.05188136
  Ewald energy   TEWEN  =       202.78278476
  -Hartree energ DENC   =      -682.94528332
  -exchange      EXHF   =         0.00000000
  -V(xc)+E(xc)   XCENC  =        40.25083596
  PAW double counting   =       831.74204001     -833.74201918
  entropy T*S    EENTRO =        -0.00000000
  eigenvalues    EBANDS =      -152.49152103
  atomic energy  EATOM  =       582.05405637
  ---------------------------------------------------
  free energy    TOTEN  =       -12.29722506 eV

  energy without entropy =      -12.29722506  energy(sigma->0) =      -12.29722506


--------------------------------------------------------------------------------------------------------


  average scaling for gradient   1.6714


 average (electrostatic) potential at core
  the test charge radii are     0.6991  0.7215
  (the norm of the test charge is              1.0000)
       1 -61.7908       2 -83.6052



 E-fermi :  -8.9100     XC(G=0):  -0.1241     alpha+bet : -0.0207

 Fermi energy:        -8.9099859978

 k-point     1 :       0.0000    0.0000    0.0000
  band No.  band energies     occupation 
      1     -29.3051      2.00000
      2     -14.0973      2.00000
      3     -11.8391      2.00000
      4     -11.8391      2.00000
      5      -9.1652      2.00000
      6      -2.2460      0.00000
      7      -2.2460      0.00000
      8      -0.3107      0.00000
      9       0.0952      0.00000
     10       0.1889      0.00000
     11       0.2277      0.00000
     12       0.2277      0.00000
     13       0.3279      0.00000
     14       0.3413      0.00000
     15       0.4989      0.00000
     16       0.5440      0.00000
     17       0.5440      0.00000
     18       0.5589      0.00000
     19       0.6655      0.00000
     20       0.6765      0.00000
     21       0.6765      0.00000
     22       0.7015      0.00000
     23       0.7052      0.00000
     24       0.7083      0.00000
     25       0.7311      0.00000
     26       0.7311      0.00000
     27       0.9551      0.00000
     28       0.9866      0.00000
     29       0.9866      0.00000
     30       1.0094      0.00000
     31       1.0324      0.00000
     32       1.0411      0.00000
     33       1.0411      0.00000
     34       1.0765      0.00000
     35       1.1883      0.00000
     36       1.2340      0.00000
     37       1.3234      0.00000
     38       1.3339      0.00000
     39       1.3339      0.00000
     40       1.4258      0.00000
     41       1.4931      0.00000
     42       1.5628      0.00000
     43       1.6053      0.00000
     44       1.6053      0.00000
     45       1.6509      0.00000
     46       1.6509      0.00000
     47       1.6595      0.00000
     48       1.6987      0.00000
     49       1.6987      0.00000
     50       1.7012      0.00000
     51       1.7034      0.00000
     52       1.7218      0.00000
     53       1.7479      0.00000
     54       1.7771      0.00000
     55       1.7968      0.00000
     56       1.7968      0.00000
     57       1.7971      0.00000
     58       1.8077      0.00000
     59       1.8077      0.00000
     60       1.8219      0.00000
     61       1.8598      0.00000
     62       1.8650      0.00000
     63       1.8650      0.00000
     64       1.8678      0.00000


--------------------------------------------------------------------------------------------------------


 soft charge-density along one line, spin component           1
         0         1         2         3         4         5         6         7         8         9
 total charge-density along one line

 pseudopotential strength for first ion, spin component:           1
 10.435  13.880   0.000   0.026   0.000  -0.000  -0.079  -0.000
 13.880  18.463   0.000   0.034   0.000  -0.000  -0.104  -0.000
  0.000   0.000  -4.587  -0.000  -0.000   9.003   0.000   0.000
  0.026   0.034  -0.000  -4.591   0.000   0.000   8.986  -0.000
  0.000   0.000  -0.000   0.000  -4.587   0.000  -0.000   9.003
 -0.000  -0.000   9.003   0.000   0.000 -19.819  -0.000  -0.000
 -0.079  -0.104   0.000   8.986  -0.000  -0.000 -19.734   0.000
 -0.000  -0.000   0.000  -0.000   9.003  -0.000   0.000 -19.819
 total augmentation occupancy for first ion, spin component:           1
  7.098  -3.230  -0.000   2.164  -0.000  -0.000   0.384  -0.000
 -3.230   1.893   0.000  -1.648   0.000   0.000  -0.229   0.000
 -0.000   0.000   0.814   0.000   0.000   0.057   0.000   0.000
  2.164  -1.648   0.000   2.218  -0.000   0.000   0.201  -0.000
 -0.000   0.000   0.000  -0.000   0.814   0.000  -0.000   0.057
 -0.000   0.000   0.057   0.000   0.000   0.004   0.000   0.000
  0.384  -0.229   0.000   0.201  -0.000   0.000   0.028  -0.000
 -0.000   0.000   0.000  -0.000   0.057   0.000  -0.000   0.004


------------------------ aborting loop because EDIFF is reached ----------------------------------------


    FORLOC:  cpu time      0.0030: real time      0.0030
    FORNL :  cpu time      0.0024: real time      0.0024
    STRESS:  cpu time      0.0644: real time      0.0646
    FORCOR:  cpu time      1.4580: real time      1.4582
    OFIELD:  cpu time      0.0003: real time      0.0003

  FORCE on cell =-STRESS in cart. coord.  units (eV):
  Direction    XX          YY          ZZ          XY          YZ          ZX
  --------------------------------------------------------------------------------------
  Alpha Z     0.05171     0.05171     0.05171
  Ewald     -31.59371   -31.59371   265.97029    -0.00000    -0.00000     0.00000
  Hartree   193.85936   193.85936   295.22651     0.00000     0.00000    -0.00000
  E(xc)     -44.06573   -44.06573   -42.90619     0.00000     0.00000    -0.00000
  Local    -296.69678  -296.69678  -669.26377    -0.00000     0.00000     0.00000
  n-local   -18.71445   -18.71445   -30.14144     0.00000     0.00000    -0.00000
  augment     6.38897     6.38897     5.82382    -0.00000    -0.00000    -0.00000
  Kinetic   190.71422   190.71422   175.17201    -0.00000    -0.00000     0.00000
  Fock        0.00000     0.00000     0.00000     0.00000     0.00000     0.00000
  -------------------------------------------------------------------------------------
  Total      -0.05641    -0.05641    -0.06706    -0.00000     0.00000    -0.00000
  in kB      -0.01070    -0.01070    -0.01271    -0.00000     0.00000    -0.00000
  external pressure =       -0.01 kB  Pullay stress =        0.00 kB


 VOLUME and BASIS-vectors are now :
 -----------------------------------------------------------------------------
  energy-cutoff  :      600.00
  volume of cell :     8450.53
      direct lattice vectors                 reciprocal lattice vectors
    20.000000000  0.000000000  0.000000000     0.050000000  0.000000000  0.000000000
     0.000000000 20.000000000  0.000000000     0.000000000  0.050000000  0.000000000
     0.000000000  0.000000000 21.126328287     0.000000000  0.000000000  0.047334302

  length of vectors
    20.000000000 20.000000000 21.126328287     0.050000000  0.050000000  0.047334302


 FORCES acting on ions:
    Electron-Ion                     Ewald-Force                    Non-Local-Force
 -----------------------------------------------------------------------------------------------
   0.378E-08 -.107E-07 0.237E+03   -.175E-16 -.203E-16 -.265E+03   -.442E-08 0.109E-08 0.283E+02
   -.118E-07 0.129E-07 -.205E+03   0.205E-17 0.646E-17 0.265E+03   -.912E-08 0.135E-07 -.599E+02
 -----------------------------------------------------------------------------------------------
   -.803E-08 0.217E-08 0.315E+02   -.154E-16 -.138E-16 0.000E+00   -.135E-07 0.146E-07 -.315E+02


 POSITION                                       TOTAL-FORCE (eV/Angst)
 -----------------------------------------------------------------------------------
     10.00000     10.00000      9.99265         0.000000     -0.000000     -0.000609
     10.00000     10.00000     11.13368        -0.000000      0.000000      0.000609
 -----------------------------------------------------------------------------------
    total drift:                               -0.000000      0.000000      0.001029


--------------------------------------------------------------------------------------------------------



  FREE ENERGIE OF THE ION-ELECTRON SYSTEM (eV)
  ---------------------------------------------------
  free  energy   TOTEN  =       -12.29722506 eV

  energy  without entropy=      -12.29722506  energy(sigma->0) =      -12.29722506



--------------------------------------------------------------------------------------------------------


    POTLOK:  cpu time      1.5676: real time      1.5677


--------------------------------------------------------------------------------------------------------


 Finite differences:
   Step               POTIM =    1.0000000000000000E-002
   Degrees of freedom DOF   =            6
    WAVPRE:  cpu time      0.0146: real time      0.0267
    FEWALD:  cpu time      0.0003: real time      0.0003
    ORTHCH:  cpu time      0.0060: real time      0.0060
    POTLOK:  cpu time      1.5723: real time      1.5728
    EDDIAG:  cpu time      0.0559: real time      0.0559
    CHARGE:  cpu time      0.0437: real time      0.0437
     LOOP+:  cpu time     72.5638: real time     72.7677


--------------------------------------- Iteration      2(   1)  ---------------------------------------


    POTLOK:  cpu time      1.4976: real time      1.4977
    SETDIJ:  cpu time      0.0855: real time      0.0855
    TRIAL :  cpu time      0.0971: real time      0.0971
    CORREC:  cpu time      1.6711: real time      1.6713
    CHARGE:  cpu time      0.0429: real time      0.0429
    --------------------------------------------
      LOOP:  cpu time      3.3950: real time      3.3952

 eigenvalue-minimisations  :     0
 total energy-change (2. order) : 0.1747558E-01  (-0.1398903E-01)
 number of electron       9.9999999 magnetization 
 augmentation part        0.6616655 magnetization 

 DIPCOR: dipole corrections for dipol
 direction  1 min pos     1, direction  2 min pos     1, direction  3 min pos     1,
 dipolmoment           0.002051     -0.000000     -0.024823 electrons x Angstroem
 Tr[quadrupol]         5.388498

 energy correction for charged system         0.000000 eV
 dipol+quadrupol energy correction           -0.000002 eV
 added-field ion interaction          0.000168 eV  (added to PSCEN)


 Free energy of the ion-electron system (eV)
  ---------------------------------------------------
  alpha Z        PSCENC =         0.05187213
  Ewald energy   TEWEN  =       202.77116284
  -Hartree energ DENC   =      -683.00230202
  -exchange      EXHF   =         0.00000000
  -V(xc)+E(xc)   XCENC  =        40.25348197
  PAW double counting   =       837.93309824     -839.93358927
  entropy T*S    EENTRO =        -0.00000000
  eigenvalues    EBANDS =      -152.40752972
  atomic energy  EATOM  =       582.05405637
  ---------------------------------------------------
  free energy    TOTEN  =       -12.27974947 eV

  energy without entropy =      -12.27974947  energy(sigma->0) =      -12.27974947


--------------------------------------------------------------------------------------------------------




--------------------------------------- Iteration      2(   2)  ---------------------------------------


    POTLOK:  cpu time      1.4987: real time      1.4988
    SETDIJ:  cpu time      0.0854: real time      0.0854
    TRIAL :  cpu time      0.0971: real time      0.0972
[...]


--------------------------------------------------------------------------------------------------------




--------------------------------------- Iteration     13(  12)  ---------------------------------------


    POTLOK:  cpu time      1.4961: real time      1.4962
    SETDIJ:  cpu time      0.0854: real time      0.0854
    TRIAL :  cpu time      0.0973: real time      0.0973
    CORREC:  cpu time      1.6734: real time      1.6735
    CHARGE:  cpu time      0.0428: real time      0.0428
    --------------------------------------------
      LOOP:  cpu time      3.4093: real time      3.4099

 eigenvalue-minimisations  :     0
 total energy-change (2. order) :-0.5176255E-06  (-0.1115942E-06)
 number of electron       9.9999998 magnetization 
 augmentation part        0.6674437 magnetization 

 DIPCOR: dipole corrections for dipol
 direction  1 min pos     1, direction  2 min pos     1, direction  3 min pos     1,
 dipolmoment          -0.000000      0.000000     -0.032498 electrons x Angstroem
 Tr[quadrupol]         5.376952

 energy correction for charged system         0.000000 eV
 dipol+quadrupol energy correction           -0.000003 eV
 added-field ion interaction          0.000210 eV  (added to PSCEN)


 Free energy of the ion-electron system (eV)
  ---------------------------------------------------
  alpha Z        PSCENC =         0.05191432
  Ewald energy   TEWEN  =       205.45904494
  -Hartree energ DENC   =      -685.09251461
  -exchange      EXHF   =         0.00000000
  -V(xc)+E(xc)   XCENC  =        40.32998592
  PAW double counting   =       848.50990040     -850.52440887
  entropy T*S    EENTRO =        -0.00000000
  eigenvalues    EBANDS =      -153.07935428
  atomic energy  EATOM  =       582.05405637
  ---------------------------------------------------
  free energy    TOTEN  =       -12.29137580 eV

  energy without entropy =      -12.29137580  energy(sigma->0) =      -12.29137580


--------------------------------------------------------------------------------------------------------




--------------------------------------- Iteration     13(  13)  ---------------------------------------


    POTLOK:  cpu time      1.4921: real time      1.4923
    SETDIJ:  cpu time      0.0855: real time      0.0855
    TRIAL :  cpu time      0.0966: real time      0.0966
    CORREC:  cpu time      1.6747: real time      1.6753
    CHARGE:  cpu time      0.0435: real time      0.0435
    --------------------------------------------
      LOOP:  cpu time      3.3981: real time      3.4074

 eigenvalue-minimisations  :     0
 total energy-change (2. order) :-0.1117214E-06  (-0.2302591E-07)
 number of electron       9.9999998 magnetization 
 augmentation part        0.6674437 magnetization 

 DIPCOR: dipole corrections for dipol
 direction  1 min pos     1, direction  2 min pos     1, direction  3 min pos     1,
 dipolmoment           0.000000      0.000000     -0.032497 electrons x Angstroem
 Tr[quadrupol]         5.376980

 energy correction for charged system         0.000000 eV
 dipol+quadrupol energy correction           -0.000003 eV
 added-field ion interaction          0.000210 eV  (added to PSCEN)


 Free energy of the ion-electron system (eV)
  ---------------------------------------------------
  alpha Z        PSCENC =         0.05191428
  Ewald energy   TEWEN  =       205.45904494
  -Hartree energ DENC   =      -685.09308581
  -exchange      EXHF   =         0.00000000
  -V(xc)+E(xc)   XCENC  =        40.33001989
  PAW double counting   =       848.49669560     -850.51123068
  entropy T*S    EENTRO =        -0.00000000
  eigenvalues    EBANDS =      -153.07879050
  atomic energy  EATOM  =       582.05405637
  ---------------------------------------------------
  free energy    TOTEN  =       -12.29137592 eV

  energy without entropy =      -12.29137592  energy(sigma->0) =      -12.29137592


--------------------------------------------------------------------------------------------------------




--------------------------------------- Iteration     13(  14)  ---------------------------------------


    POTLOK:  cpu time      1.4932: real time      1.4933
    SETDIJ:  cpu time      0.0855: real time      0.0855
    TRIAL :  cpu time      0.0965: real time      0.0965
    CORREC:  cpu time      1.6702: real time      1.6704
    CHARGE:  cpu time      0.0431: real time      0.0431
    --------------------------------------------
      LOOP:  cpu time      3.4022: real time      3.4026

 eigenvalue-minimisations  :     0
 total energy-change (2. order) :-0.2235305E-07  (-0.8426171E-08)
 number of electron       9.9999998 magnetization 
 augmentation part        0.6674440 magnetization 

 DIPCOR: dipole corrections for dipol
 direction  1 min pos     1, direction  2 min pos     1, direction  3 min pos     1,
 dipolmoment           0.000000      0.000000     -0.032498 electrons x Angstroem
 Tr[quadrupol]         5.376980

 energy correction for charged system         0.000000 eV
 dipol+quadrupol energy correction           -0.000003 eV
 added-field ion interaction          0.000210 eV  (added to PSCEN)


 Free energy of the ion-electron system (eV)
  ---------------------------------------------------
  alpha Z        PSCENC =         0.05191428
  Ewald energy   TEWEN  =       205.45904494
  -Hartree energ DENC   =      -685.09235972
  -exchange      EXHF   =         0.00000000
  -V(xc)+E(xc)   XCENC  =        40.32998041
  PAW double counting   =       848.48890850     -850.50344928
  entropy T*S    EENTRO =        -0.00000000
  eigenvalues    EBANDS =      -153.07947143
  atomic energy  EATOM  =       582.05405637
  ---------------------------------------------------
  free energy    TOTEN  =       -12.29137594 eV

  energy without entropy =      -12.29137594  energy(sigma->0) =      -12.29137594


--------------------------------------------------------------------------------------------------------




--------------------------------------- Iteration     13(  15)  ---------------------------------------


    POTLOK:  cpu time      1.4959: real time      1.4960
    SETDIJ:  cpu time      0.0857: real time      0.0857
    TRIAL :  cpu time      0.0969: real time      0.0969
    CORREC:  cpu time      1.6707: real time      1.6708
    EDDIAG:  cpu time      0.0529: real time      0.0529
    CHARGE:  cpu time      0.0452: real time      0.0452
    --------------------------------------------
      LOOP:  cpu time      3.4524: real time      3.4618

 eigenvalue-minimisations  :     0
 total energy-change (2. order) :-0.8054940E-08  (-0.4729321E-08)
 number of electron       9.9999998 magnetization 
 augmentation part        0.6674435 magnetization 

 DIPCOR: dipole corrections for dipol
 direction  1 min pos     1, direction  2 min pos     1, direction  3 min pos     1,
 dipolmoment           0.000000      0.000000     -0.032499 electrons x Angstroem
 Tr[quadrupol]         5.376981

 energy correction for charged system         0.000000 eV
 dipol+quadrupol energy correction           -0.000003 eV
 added-field ion interaction          0.000210 eV  (added to PSCEN)


 Free energy of the ion-electron system (eV)
  ---------------------------------------------------
  alpha Z        PSCENC =         0.05191428
  Ewald energy   TEWEN  =       205.45904494
  -Hartree energ DENC   =      -685.09238287
  -exchange      EXHF   =         0.00000000
  -V(xc)+E(xc)   XCENC  =        40.32998140
  PAW double counting   =       848.48364588     -850.49818963
  entropy T*S    EENTRO =        -0.00000000
  eigenvalues    EBANDS =      -153.07944631
  atomic energy  EATOM  =       582.05405637
  ---------------------------------------------------
  free energy    TOTEN  =       -12.29137595 eV

  energy without entropy =      -12.29137595  energy(sigma->0) =      -12.29137595


--------------------------------------------------------------------------------------------------------


  average scaling for gradient   1.9551


 average (electrostatic) potential at core
  the test charge radii are     0.6991  0.7215
  (the norm of the test charge is              1.0000)
       1 -61.7524       2 -83.6509



 E-fermi :  -8.8420     XC(G=0):  -0.1198     alpha+bet : -0.0207

 Fermi energy:        -8.8419934597

 k-point     1 :       0.0000    0.0000    0.0000
  band No.  band energies     occupation 
      1     -29.4534      2.00000
      2     -14.0914      2.00000
      3     -11.9264      2.00000
      4     -11.9264      2.00000
      5      -9.1421      2.00000
      6      -2.1510      0.00000
      7      -2.1510      0.00000
      8      -0.3027      0.00000
      9       0.0971      0.00000
     10       0.2031      0.00000
     11       0.2353      0.00000
     12       0.2353      0.00000
     13       0.3340      0.00000
     14       0.3449      0.00000
     15       0.5035      0.00000
     16       0.5457      0.00000
     17       0.5457      0.00000
     18       0.5630      0.00000
     19       0.6680      0.00000
     20       0.6828      0.00000
     21       0.6828      0.00000
     22       0.7086      0.00000
     23       0.7092      0.00000
     24       0.7108      0.00000
     25       0.7329      0.00000
     26       0.7329      0.00000
     27       0.9573      0.00000
     28       0.9873      0.00000
     29       0.9873      0.00000
     30       1.0134      0.00000
     31       1.0343      0.00000
     32       1.0472      0.00000
     33       1.0472      0.00000
     34       1.0792      0.00000
     35       1.2007      0.00000
     36       1.2464      0.00000
     37       1.3316      0.00000
     38       1.3380      0.00000
     39       1.3380      0.00000
     40       1.4327      0.00000
     41       1.4974      0.00000
     42       1.5685      0.00000
     43       1.6084      0.00000
     44       1.6084      0.00000
     45       1.6551      0.00000
     46       1.6551      0.00000
     47       1.6618      0.00000
     48       1.7026      0.00000
     49       1.7026      0.00000
     50       1.7054      0.00000
     51       1.7067      0.00000
     52       1.7239      0.00000
     53       1.7528      0.00000
     54       1.7877      0.00000
     55       1.8009      0.00000
     56       1.8009      0.00000
     57       1.8050      0.00000
     58       1.8132      0.00000
     59       1.8132      0.00000
     60       1.8298      0.00000
     61       1.8613      0.00000
     62       1.8664      0.00000
     63       1.8664      0.00000
     64       1.8699      0.00000


--------------------------------------------------------------------------------------------------------


 soft charge-density along one line, spin component           1
         0         1         2         3         4         5         6         7         8         9
 total charge-density along one line

 pseudopotential strength for first ion, spin component:           1
 10.434  13.879   0.000   0.027  -0.000  -0.000  -0.082  -0.000
 13.879  18.461   0.000   0.035  -0.000  -0.000  -0.108  -0.000
  0.000   0.000  -4.583   0.000   0.000   8.995  -0.000  -0.000
  0.027   0.035   0.000  -4.590   0.000  -0.000   8.982  -0.000
 -0.000  -0.000   0.000   0.000  -4.583  -0.000  -0.000   8.995
 -0.000  -0.000   8.995  -0.000  -0.000 -19.801   0.000   0.000
 -0.082  -0.108  -0.000   8.982  -0.000   0.000 -19.724   0.000
 -0.000  -0.000  -0.000  -0.000   8.995   0.000   0.000 -19.801
 total augmentation occupancy for first ion, spin component:           1
  7.333  -3.367  -0.000   2.235   0.000  -0.000   0.396   0.000
 -3.367   1.966   0.000  -1.689  -0.000   0.000  -0.237  -0.000
 -0.000   0.000   0.828  -0.000  -0.000   0.059  -0.000  -0.000
  2.235  -1.689  -0.000   2.254  -0.000  -0.000   0.206  -0.000
  0.000  -0.000  -0.000  -0.000   0.828  -0.000  -0.000   0.059
 -0.000   0.000   0.059  -0.000  -0.000   0.004  -0.000  -0.000
  0.396  -0.237  -0.000   0.206  -0.000  -0.000   0.029   0.000
  0.000  -0.000  -0.000  -0.000   0.059  -0.000   0.000   0.004


------------------------ aborting loop because EDIFF is reached ----------------------------------------


    FORLOC:  cpu time      0.0027: real time      0.0027
    FORNL :  cpu time      0.0021: real time      0.0021
    STRESS:  cpu time      0.0636: real time      0.0636
    FORCOR:  cpu time      1.4612: real time      1.4613
    OFIELD:  cpu time      0.0002: real time      0.0002

  FORCE on cell =-STRESS in cart. coord.  units (eV):
  Direction    XX          YY          ZZ          XY          YZ          ZX
  --------------------------------------------------------------------------------------
  Alpha Z     0.05171     0.05171     0.05171
  Ewald     -31.59249   -31.59249   268.64408     0.00000     0.00000     0.00000
  Hartree   194.66276   194.66276   295.76693    -0.00000    -0.00000    -0.00000
  E(xc)     -44.14833   -44.14833   -42.98570    -0.00000    -0.00000    -0.00000
  Local    -297.72345  -297.72345  -671.29664     0.00000    -0.00000     0.00000
  n-local   -18.85251   -18.85251   -30.42776     0.00000    -0.00000    -0.00000
  augment     6.40550     6.40550     5.76480    -0.00000     0.00000     0.00000
  Kinetic   191.13925   191.13925   175.75147    -0.00000     0.00000    -0.00000
  Fock        0.00000     0.00000     0.00000     0.00000     0.00000     0.00000
  -------------------------------------------------------------------------------------
  Total      -0.05756    -0.05756     1.26890    -0.00000     0.00000     0.00000
  in kB      -0.01091    -0.01091     0.24058    -0.00000     0.00000     0.00000
  external pressure =        0.07 kB  Pullay stress =        0.00 kB


 VOLUME and BASIS-vectors are now :
 -----------------------------------------------------------------------------
  energy-cutoff  :      600.00
  volume of cell :     8450.53
      direct lattice vectors                 reciprocal lattice vectors
    20.000000000  0.000000000  0.000000000     0.050000000  0.000000000  0.000000000
     0.000000000 20.000000000  0.000000000     0.000000000  0.050000000  0.000000000
     0.000000000  0.000000000 21.126328287     0.000000000  0.000000000  0.047334302

  length of vectors
    20.000000000 20.000000000 21.126328287     0.050000000  0.050000000  0.047334302


 FORCES acting on ions:
    Electron-Ion                     Ewald-Force                    Non-Local-Force
 -----------------------------------------------------------------------------------------------
   0.517E-09 -.101E-07 0.240E+03   0.515E-16 0.504E-16 -.270E+03   -.216E-10 -.311E-08 0.283E+02
   -.235E-09 -.775E-07 -.208E+03   -.670E-16 -.643E-16 0.270E+03   0.141E-08 0.322E-07 -.606E+02
 -----------------------------------------------------------------------------------------------
   0.284E-09 -.875E-07 0.322E+02   -.155E-16 -.139E-16 0.000E+00   0.139E-08 0.291E-07 -.322E+02


 POSITION                                       TOTAL-FORCE (eV/Angst)
 -----------------------------------------------------------------------------------
     10.00000     10.00000      9.99265        -0.000000      0.000000     -1.183292
     10.00000     10.00000     11.12368         0.000000     -0.000000      1.183292
 -----------------------------------------------------------------------------------
    total drift:                                0.000000     -0.000000      0.000223


--------------------------------------------------------------------------------------------------------



  FREE ENERGIE OF THE ION-ELECTRON SYSTEM (eV)
  ---------------------------------------------------
  free  energy   TOTEN  =       -12.29137595 eV

  energy  without entropy=      -12.29137595  energy(sigma->0) =      -12.29137595

 d Force =-0.8279572E-03[-0.237E-01, 0.220E-01]  d Energy =-0.2855545E-03-0.542E-03
 d Force =-0.5306791E+01[-0.540E+01,-0.521E+01]  d Ewald  =-0.5305975E+01-0.816E-03


--------------------------------------------------------------------------------------------------------


    POTLOK:  cpu time      1.5718: real time      1.5725


--------------------------------------------------------------------------------------------------------


 Finite differences progress:
  Degree of freedom:   6/  6
  Displacement:        2/  2
  Total:              12/ 12

 SECOND DERIVATIVES (NOT SYMMETRIZED)
 ------------------------------------
               1X          1Y          1Z          2X          2Y          2Z 
  1X    -0.005237    0.000000    0.000448    0.005237   -0.000000   -0.000448
  1Y    -0.000368   -0.005254   -0.000594    0.000368    0.005254    0.000594
  1Z    -0.000000    0.001257 -114.215667    0.000000   -0.001257  114.215667
  2X     0.016731   -0.000000    0.001038   -0.016731    0.000000   -0.001038
  2Y     0.000055    0.013750   -0.000057   -0.000055   -0.013750    0.000057
  2Z     0.000000   -0.003835  114.189416   -0.000000    0.003835 -114.189416


 Eigenvectors and eigenvalues of the dynamical matrix
 ----------------------------------------------------


   1 f  =   63.783287 THz   400.762213 2PiTHz 2127.581448 cm-1   263.786361 meV
             X         Y         Z           dx          dy          dz
     10.000000 10.000000  9.992649    -0.000001   -0.000006    0.755818  
     10.000000 10.000000 11.133680    -0.000003    0.000007   -0.654782  

   2 f  =    0.623534 THz     3.917780 2PiTHz   20.798860 cm-1     2.578729 meV
             X         Y         Z           dx          dy          dz
     10.000000 10.000000  9.992649     0.565106    0.043830    0.002391  
     10.000000 10.000000 11.133680    -0.822625   -0.044827    0.002761  

   3 f  =    0.578804 THz     3.636730 2PiTHz   19.306808 cm-1     2.393738 meV
             X         Y         Z           dx          dy          dz
     10.000000 10.000000  9.992649     0.033235   -0.591884   -0.043175  
     10.000000 10.000000 11.133680    -0.052641    0.800906   -0.049823  

   4 f/i=    0.003496 THz     0.021965 2PiTHz    0.116611 cm-1     0.014458 meV
             X         Y         Z           dx          dy          dz
     10.000000 10.000000  9.992649     0.005211    0.190306    0.626508  
     10.000000 10.000000 11.133680     0.006002    0.219580    0.723182  

   5 f/i=    0.134928 THz     0.847777 2PiTHz    4.500711 cm-1     0.558017 meV
             X         Y         Z           dx          dy          dz
     10.000000 10.000000  9.992649     0.083802    0.777170   -0.184748  
     10.000000 10.000000 11.133680     0.067639    0.552086   -0.213257  

   6 f/i=    0.162848 THz     1.023202 2PiTHz    5.432011 cm-1     0.673483 meV
             X         Y         Z           dx          dy          dz
     10.000000 10.000000  9.992649     0.820061   -0.086844    0.015002  
     10.000000 10.000000 11.133680     0.562056   -0.059381    0.017313  

 Finite differences POTIM=   1.0000000000000000E-002
     LOOP+:  cpu time     54.3251: real time     54.4954
    4ORBIT:  cpu time      0.0000: real time      0.0000

 total amount of memory used by VASP MPI-rank0    79043. kBytes
=======================================================================

   base      :      30000. kBytes
   nonl-proj :       2826. kBytes
   fftplans  :      15799. kBytes
   grid      :      29568. kBytes
   one-center:          1. kBytes
   wavefun   :        849. kBytes

  
  
 General timing and accounting informations for this job:
 ========================================================
  
                  Total CPU time used (sec):      747.191
                            User time (sec):      738.767
                          System time (sec):        8.424
                         Elapsed time (sec):      764.329
  
                   Maximum memory used (kb):      326208.
                   Average memory used (kb):          N/A
  
                          Minor page faults:       581387
                          Major page faults:            0
                 Voluntary context switches:        19290
