 vasp.6.3.0 20Jan22 (build Apr  1 2022 16:44:48) complex
 executed on        HPECrayEX_GCC date 2022.09.24  12:34:34
 running  768 mpi-ranks, with    1 threads/rank
 distrk:  each k-point on  384 cores,    2 groups
 distr:  one band on NCORE=   4 cores,   96 groups


--------------------------------------------------------------------------------------------------------


 INCAR:
   SYSTEM = MgO-rocksalt
   ISMEAR = 0
   SIGMA = 0.05
   EDIFF = 1E-7
   ALGO = ALL
   ISTART = 0
   IBRION = 2
   NSW = 1000
   ISYM = 2
   ISIF = 3
   EDIFFG = -0.005
   GGA = RE
   IVDW = 13
   VDW_S8 = 1.7468
   VDW_A1 = 0.5363
   VDW_A2 = 3.0726
   ENCUT = 600
   PREC = Normal
   LASPH = .TRUE.
   LREAL = .FALSE.
   ISPIN = 1
   NELM = 200
   NELMIN = 8
   NCORE = 4
   KPAR = 2
   LWAVE = .FALSE.
   LCHARG = .FALSE.

 POTCAR:    PAW_PBE Mg_pv 13Apr2007
 POTCAR:    PAW_PBE O 08Apr2002
 POTCAR:    PAW_PBE Mg_pv 13Apr2007
   SHA256 =  f474ac0dd33840b9ae76c01d57fea79fdf77cdfbb07d5ade72c65f83c709b62b Mg_pv/POTCAR
   COPYR  = (c) Copyright 13Apr2007 Georg Kresse
   COPYR  = This file is part of the software VASP. Any use, copying, and all other rights are regul
   COPYR  = If you do not have a valid VASP license, you may not use, copy or distribute this file.
   VRHFIN =Mg: p6s2
   LEXCH  = PE
   EATOM  =  1056.7344 eV,   77.6678 Ry

   TITEL  = PAW_PBE Mg_pv 13Apr2007
   LULTRA =        F    use ultrasoft PP ?
   IUNSCR =        1    unscreen: 0-lin 1-nonlin 2-no
   RPACOR =    1.500    partial core radius
   POMASS =   24.305; ZVAL   =    8.000    mass and valenz
   RCORE  =    2.000    outmost cutoff radius
   RWIGS  =    2.000; RWIGS  =    1.058    wigner-seitz radius (au A)
   ENMAX  =  403.929; ENMIN  =  302.947 eV
   RCLOC  =    1.506    cutoff for local pot
   LCOR   =        T    correct aug charges
   LPAW   =        T    paw PP
   EAUG   =  758.780
   DEXC   =    0.000
   RMAX   =    2.045    core radius for proj-oper
   RAUG   =    1.300    factor for augmentation sphere
   RDEP   =    2.025    radius for radial grids
   RDEPT  =    1.557    core radius for aug-charge

   Atomic configuration
    5 entries
     n  l   j            E        occ.
     1  0  0.50     -1259.6230   2.0000
     2  0  0.50       -79.8442   2.0000
     2  1  1.50       -46.6121   6.0000
     3  0  0.50        -4.7055   2.0000
     3  2  1.50        -1.3606   0.0000
   Description
     l       E           TYP  RCUT    TYP  RCUT
     1    -46.6121073     23  1.600
     1      2.7211652     23  1.600
     0     -4.7054661     23  2.000
     0     61.2262170     23  2.000
     2     -1.3605826     23  2.000
  local pseudopotential read in
  partial core-charges read in
  partial kinetic energy density read in
  atomic valenz-charges read in
  non local Contribution for L=           1  read in
    real space projection operators read in
  non local Contribution for L=           1  read in
    real space projection operators read in
  non local Contribution for L=           0  read in
    real space projection operators read in
  non local Contribution for L=           0  read in
    real space projection operators read in
  non local Contribution for L=           2  read in
    real space projection operators read in
    PAW grid and wavefunctions read in

   number of l-projection  operators is LMAX  =           5
   number of lm-projection operators is LMMAX =          13

 POTCAR:    PAW_PBE O 08Apr2002
   SHA256 =  818f92134a0a090dccd8ba1447fa70422a3b330e708bb4f08108d8ae51209ddf O/POTCAR
   COPYR  = (c) Copyright 08Apr2002 Georg Kresse
   COPYR  = This file is part of the software VASP. Any use, copying, and all other rights are regul
   COPYR  = If you do not have a valid VASP license, you may not use, copy or distribute this file.
   VRHFIN =O: s2p4
   LEXCH  = PE
   EATOM  =   432.3788 eV,   31.7789 Ry

   TITEL  = PAW_PBE O 08Apr2002
   LULTRA =        F    use ultrasoft PP ?
   IUNSCR =        1    unscreen: 0-lin 1-nonlin 2-no
   RPACOR =    1.200    partial core radius
   POMASS =   16.000; ZVAL   =    6.000    mass and valenz
   RCORE  =    1.520    outmost cutoff radius
   RWIGS  =    1.550; RWIGS  =    0.820    wigner-seitz radius (au A)
   ENMAX  =  400.000; ENMIN  =  300.000 eV
   ICORE  =        2    local potential
   LCOR   =        T    correct aug charges
   LPAW   =        T    paw PP
   EAUG   =  605.392
   DEXC   =    0.000
   RMAX   =    1.553    core radius for proj-oper
   RAUG   =    1.300    factor for augmentation sphere
   RDEP   =    1.550    radius for radial grids
   RDEPT  =    1.329    core radius for aug-charge

   Atomic configuration
    4 entries
     n  l   j            E        occ.
     1  0  0.50      -514.6923   2.0000
     2  0  0.50       -23.9615   2.0000
     2  1  0.50        -9.0305   4.0000
     3  2  1.50        -9.5241   0.0000
   Description
     l       E           TYP  RCUT    TYP  RCUT
     0    -23.9615318     23  1.200
     0     -9.5240782     23  1.200
     1     -9.0304911     23  1.520
     1      8.1634956     23  1.520
     2     -9.5240782      7  1.500
  local pseudopotential read in
  partial core-charges read in
  partial kinetic energy density read in
  kinetic energy density of atom read in
  atomic valenz-charges read in
  non local Contribution for L=           0  read in
    real space projection operators read in
  non local Contribution for L=           0  read in
    real space projection operators read in
  non local Contribution for L=           1  read in
    real space projection operators read in
  non local Contribution for L=           1  read in
    real space projection operators read in
    PAW grid and wavefunctions read in

   number of l-projection  operators is LMAX  =           4
   number of lm-projection operators is LMMAX =           8

 -----------------------------------------------------------------------------
|                                                                             |
|               ----> ADVICE to this user running VASP <----                  |
|                                                                             |
|     You enforced a specific xc type in the INCAR file but a different       |
|     type was found in the POTCAR file.                                      |
|     I HOPE YOU KNOW WHAT YOU ARE DOING!                                     |
|                                                                             |
 -----------------------------------------------------------------------------

  PAW_PBE Mg_pv 13Apr2007               :
 energy of atom  1       EATOM=-1056.7344
 kinetic energy error for atom=    0.0221 (will be added to EATOM!!)
  PAW_PBE O 08Apr2002                   :
 energy of atom  2       EATOM= -432.3788
 kinetic energy error for atom=    0.0168 (will be added to EATOM!!)


 POSCAR: Mg4 O4
  positions in direct lattice
  velocities in cartesian coordinates
 -----------------------------------------------------------------------------
|                                                                             |
|           W    W    AA    RRRRR   N    N  II  N    N   GGGG   !!!           |
|           W    W   A  A   R    R  NN   N  II  NN   N  G    G  !!!           |
|           W    W  A    A  R    R  N N  N  II  N N  N  G       !!!           |
|           W WW W  AAAAAA  RRRRR   N  N N  II  N  N N  G  GGG   !            |
|           WW  WW  A    A  R   R   N   NN  II  N   NN  G    G                |
|           W    W  A    A  R    R  N    N  II  N    N   GGGG   !!!           |
|                                                                             |
|     Specifying the vdW parameters                                           |
|     VDW_S8 = 1.747                                                          |
|     VDW_A1 = 0.536                                                          |
|     VDW_A2 = 3.073                                                          |
|     in the INCAR file will overwrite the defaults for revpbe. Please        |
|     make sure that is what you intended.                                    |
|                                                                             |
 -----------------------------------------------------------------------------

 exchange correlation table for  LEXCH =       40
   RHO(1)=    0.500       N(1)  =     2000
   RHO(2)=  100.500       N(2)  =     4000



--------------------------------------------------------------------------------------------------------


 ion  position               nearest neighbor table
   1  0.000  0.000  0.000-   5 2.11   7 2.11   8 2.11   7 2.11   8 2.11   5 2.11
   2  0.000  0.500  0.500-   6 2.11   7 2.11   8 2.11   8 2.11   7 2.11   6 2.11
   3  0.500  0.000  0.500-   5 2.11   6 2.11   7 2.11   5 2.11   6 2.11   7 2.11
   4  0.500  0.500  0.000-   5 2.11   6 2.11   8 2.11   6 2.11   5 2.11   8 2.11
   5  0.500  0.000  0.000-   1 2.11   3 2.11   4 2.11   3 2.11   4 2.11   1 2.11
   6  0.500  0.500  0.500-   2 2.11   3 2.11   4 2.11   4 2.11   3 2.11   2 2.11
   7  0.000  0.000  0.500-   1 2.11   2 2.11   3 2.11   1 2.11   2 2.11   3 2.11
   8  0.000  0.500  0.000-   1 2.11   2 2.11   4 2.11   2 2.11   1 2.11   4 2.11

  LATTYP: Found a simple cubic cell.
 ALAT       =     4.2204923271

  Lattice vectors:

 A1 = (   4.2204923271,  -0.0000000000,   0.0000000000)
 A2 = (   0.0000000000,   4.2204923271,  -0.0000000000)
 A3 = (  -0.0000000000,   0.0000000000,   4.2204923271)


Analysis of symmetry for initial positions (statically):
=====================================================================
 Subroutine PRICEL returns following result:

  LATTYP: Found a face centered cubic cell.
 ALAT       =     4.2204923271

  Lattice vectors:

 A1 = (   2.1102461635,  -2.1102461635,   0.0000000000)
 A2 = (   2.1102461635,   0.0000000000,   2.1102461635)
 A3 = (   0.0000000000,  -2.1102461635,   2.1102461635)

   4 primitive cells build up your supercell.


 Routine SETGRP: Setting up the symmetry group for a
 simple cubic supercell.


 Subroutine GETGRP returns: Found 48 space group operations
 (whereof 48 operations were pure point group operations)
 out of a pool of 48 trial point group operations.


The static configuration has the point symmetry O_h .


Analysis of symmetry for dynamics (positions and initial velocities):
=====================================================================
 Subroutine PRICEL returns following result:

  LATTYP: Found a face centered cubic cell.
 ALAT       =     4.2204923271

  Lattice vectors:

 A1 = (   2.1102461635,  -2.1102461635,   0.0000000000)
 A2 = (   2.1102461635,   0.0000000000,   2.1102461635)
 A3 = (   0.0000000000,  -2.1102461635,   2.1102461635)

   4 primitive cells build up your supercell.


 Routine SETGRP: Setting up the symmetry group for a
 simple cubic supercell.


 Subroutine GETGRP returns: Found 48 space group operations
 (whereof 48 operations were pure point group operations)
 out of a pool of 48 trial point group operations.


The dynamic configuration has the point symmetry O_h .


 Subroutine INISYM returns: Found 48 space group operations
 (whereof 48 operations are pure point group operations),
 and found     4 'primitive' translations


----------------------------------------------------------------------------------------

                                     Primitive cell

  volume of cell :      18.7944

  direct lattice vectors                    reciprocal lattice vectors
     2.110246164 -2.110246164  0.000000000     0.236939182 -0.236939182 -0.236939182
     2.110246164  0.000000000  2.110246164     0.236939182  0.236939182  0.236939182
     0.000000000 -2.110246164  2.110246164    -0.236939182 -0.236939182  0.236939182

  length of vectors
     2.984338744  2.984338744  2.984338744     0.410390702  0.410390702  0.410390702

  position of ions in fractional coordinates (direct lattice)
     0.000000000  0.000000000  0.000000000
     0.500000000  0.500000000  0.500000000

  ion indices of the primitive-cell ions
   primitive index   ion index
                 1           1
                 2           5

----------------------------------------------------------------------------------------



 KPOINTS: pymatgen v2020.8.13 with grid density =

Automatic generation of k-mesh.
 Grid dimensions read from file:
 generate k-points for:    8    8    8

 Generating k-lattice:

  Cartesian coordinates                     Fractional coordinates (reciprocal lattice)
     0.029617398  0.000000000  0.000000000     0.125000000  0.000000000  0.000000000
     0.000000000  0.029617398  0.000000000     0.000000000  0.125000000  0.000000000
     0.000000000  0.000000000  0.029617398     0.000000000  0.000000000  0.125000000

  Length of vectors
     0.029617398  0.029617398  0.029617398

  Shift w.r.t. Gamma in fractional coordinates (k-lattice)
     0.000000000  0.000000000  0.000000000


 Subroutine IBZKPT returns following result:
 ===========================================

 Found     35 irreducible k-points:

 Following reciprocal coordinates:
            Coordinates               Weight
  0.000000  0.000000  0.000000      1.000000
  0.125000  0.000000  0.000000      6.000000
  0.250000  0.000000  0.000000      6.000000
  0.375000  0.000000  0.000000      6.000000
  0.500000  0.000000  0.000000      3.000000
  0.125000  0.125000  0.000000     12.000000
  0.250000  0.125000  0.000000     24.000000
  0.375000  0.125000  0.000000     24.000000
  0.500000  0.125000  0.000000     12.000000
  0.250000  0.250000  0.000000     12.000000
  0.375000  0.250000  0.000000     24.000000
  0.500000  0.250000  0.000000     12.000000
  0.375000  0.375000  0.000000     12.000000
  0.500000  0.375000  0.000000     12.000000
  0.500000  0.500000  0.000000      3.000000
  0.125000  0.125000  0.125000      8.000000
  0.250000  0.125000  0.125000     24.000000
  0.375000  0.125000  0.125000     24.000000
  0.500000  0.125000  0.125000     12.000000
  0.250000  0.250000  0.125000     24.000000
  0.375000  0.250000  0.125000     48.000000
  0.500000  0.250000  0.125000     24.000000
  0.375000  0.375000  0.125000     24.000000
  0.500000  0.375000  0.125000     24.000000
  0.500000  0.500000  0.125000      6.000000
  0.250000  0.250000  0.250000      8.000000
  0.375000  0.250000  0.250000     24.000000
  0.500000  0.250000  0.250000     12.000000
  0.375000  0.375000  0.250000     24.000000
  0.500000  0.375000  0.250000     24.000000
  0.500000  0.500000  0.250000      6.000000
  0.375000  0.375000  0.375000      8.000000
  0.500000  0.375000  0.375000     12.000000
  0.500000  0.500000  0.375000      6.000000
  0.500000  0.500000  0.500000      1.000000

 Following cartesian coordinates:
            Coordinates               Weight
  0.000000  0.000000  0.000000      1.000000
  0.029617  0.000000  0.000000      6.000000
  0.059235  0.000000  0.000000      6.000000
  0.088852  0.000000  0.000000      6.000000
  0.118470  0.000000  0.000000      3.000000
  0.029617  0.029617  0.000000     12.000000
  0.059235  0.029617  0.000000     24.000000
  0.088852  0.029617  0.000000     24.000000
  0.118470  0.029617  0.000000     12.000000
  0.059235  0.059235  0.000000     12.000000
  0.088852  0.059235  0.000000     24.000000
  0.118470  0.059235  0.000000     12.000000
  0.088852  0.088852  0.000000     12.000000
  0.118470  0.088852  0.000000     12.000000
  0.118470  0.118470  0.000000      3.000000
  0.029617  0.029617  0.029617      8.000000
  0.059235  0.029617  0.029617     24.000000
  0.088852  0.029617  0.029617     24.000000
  0.118470  0.029617  0.029617     12.000000
  0.059235  0.059235  0.029617     24.000000
  0.088852  0.059235  0.029617     48.000000
  0.118470  0.059235  0.029617     24.000000
  0.088852  0.088852  0.029617     24.000000
  0.118470  0.088852  0.029617     24.000000
  0.118470  0.118470  0.029617      6.000000
  0.059235  0.059235  0.059235      8.000000
  0.088852  0.059235  0.059235     24.000000
  0.118470  0.059235  0.059235     12.000000
  0.088852  0.088852  0.059235     24.000000
  0.118470  0.088852  0.059235     24.000000
  0.118470  0.118470  0.059235      6.000000
  0.088852  0.088852  0.088852      8.000000
  0.118470  0.088852  0.088852     12.000000
  0.118470  0.118470  0.088852      6.000000
  0.118470  0.118470  0.118470      1.000000



--------------------------------------------------------------------------------------------------------




 Dimension of arrays:
   k-points           NKPTS =     35   k-points in BZ     NKDIM =     35   number of bands    NBANDS=     96
   number of dos      NEDOS =    301   number of ions     NIONS =      8
   non local maximal  LDIM  =      5   non local SUM 2l+1 LMDIM =     13
   total plane-waves  NPLWV =  21952
   max r-space proj   IRMAX =      1   max aug-charges    IRDMAX=   5954
   dimension x,y,z NGX =    28 NGY =   28 NGZ =   28
   dimension x,y,z NGXF=    56 NGYF=   56 NGZF=   56
   support grid    NGXF=    56 NGYF=   56 NGZF=   56
   ions per type =               4   4
   NGX,Y,Z   is equivalent  to a cutoff of  11.03, 11.03, 11.03 a.u.
   NGXF,Y,Z  is equivalent  to a cutoff of  22.06, 22.06, 22.06 a.u.

 SYSTEM =  MgO-rocksalt
 POSCAR =  Mg4 O4

 Startparameter for this run:
   NWRITE =      2    write-flag & timer
   PREC   = normal    normal or accurate (medium, high low for compatibility)
   ISTART =      0    job   : 0-new  1-cont  2-samecut
   ICHARG =      2    charge: 1-file 2-atom 10-const
   ISPIN  =      1    spin polarized calculation?
   LNONCOLLINEAR =      F non collinear calculations
   LSORBIT =      F    spin-orbit coupling
   INIWAV =      1    electr: 0-lowe 1-rand  2-diag
   LASPH  =      T    aspherical Exc in radial PAW
 Electronic Relaxation 1
   ENCUT  =  600.0 eV  44.10 Ry    6.64 a.u.   8.43  8.43  8.43*2*pi/ulx,y,z
   ENINI  =  600.0     initial cutoff
   ENAUG  =  758.8 eV  augmentation charge cutoff
   NELM   =    200;   NELMIN=  8; NELMDL= -5     # of ELM steps
   EDIFF  = 0.1E-06   stopping-criterion for ELM
   LREAL  =      F    real-space projection
   NLSPLINE    = F    spline interpolate recip. space projectors
   LCOMPAT=      F    compatible to vasp.4.4
   GGA_COMPAT  = T    GGA compatible to vasp.4.4-vasp.4.6
   LMAXPAW     = -100 max onsite density
   LMAXMIX     =    2 max onsite mixed and CHGCAR
   VOSKOWN=      0    Vosko Wilk Nusair interpolation
   ROPT   =    0.00000   0.00000
 Ionic relaxation
   EDIFFG = -.5E-02   stopping-criterion for IOM
   NSW    =   1000    number of steps for IOM
   NBLOCK =      1;   KBLOCK =   1000    inner block; outer block
   IBRION =      2    ionic relax: 0-MD 1-quasi-New 2-CG
   NFREE  =      1    steps in history (QN), initial steepest desc. (CG)
   ISIF   =      3    stress and relaxation
   IWAVPR =     11    prediction:  0-non 1-charg 2-wave 3-comb
   ISYM   =      2    0-nonsym 1-usesym 2-fastsym
   LCORR  =      T    Harris-Foulkes like correction to forces

   POTIM  = 0.5000    time-step for ionic-motion
   TEIN   =    0.0    initial temperature
   TEBEG  =    0.0;   TEEND  =   0.0 temperature during run
   SMASS  =  -3.00    Nose mass-parameter (am)
   estimated Nose-frequenzy (Omega)   =  0.10E-29 period in steps = 0.13E+47 mass=  -0.407E-27a.u.
   SCALEE = 1.0000    scale energy and forces
   NPACO  =    256;   APACO  = 10.0  distance and # of slots for P.C.
   PSTRESS=    0.0 pullay stress

  Mass of Ions in am
   POMASS =  24.30 16.00
  Ionic Valenz
   ZVAL   =   8.00  6.00
  Atomic Wigner-Seitz radii
   RWIGS  =  -1.00 -1.00
  virtual crystal weights
   VCA    =   1.00  1.00
   NELECT =      56.0000    total number of electrons
   NUPDOWN=      -1.0000    fix difference up-down

 DOS related values:
   EMIN   =  10.00;   EMAX   =-10.00  energy-range for DOS
   EFERMI =   0.00
   ISMEAR =     0;   SIGMA  =   0.05  broadening in eV -4-tet -1-fermi 0-gaus

 Electronic relaxation 2 (details)
   IALGO  =     58    algorithm
   LDIAG  =      T    sub-space diagonalisation (order eigenvalues)
   LSUBROT=      F    optimize rotation matrix (better conditioning)
   TURBO    =      0    0=normal 1=particle mesh
   IRESTART =      0    0=no restart 2=restart with 2 vectors
   NREBOOT  =      0    no. of reboots
   NMIN     =      0    reboot dimension
   EREF     =   0.00    reference energy to select bands
   IMIX   =      4    mixing-type and parameters
     AMIX     =   0.40;   BMIX     =  1.00
     AMIX_MAG =   1.60;   BMIX_MAG =  1.00
     AMIN     =   0.10
     WC   =   100.;   INIMIX=   1;  MIXPRE=   1;  MAXMIX= -45

 Intra band minimization:
   WEIMIN = 0.0010     energy-eigenvalue tresh-hold
   EBREAK =  0.26E-09  absolut break condition
   DEPER  =   0.30     relativ break condition

   TIME   =   0.40     timestep for ELM

  volume/ion in A,a.u.               =       9.40        63.42
  Fermi-wavevector in a.u.,A,eV,Ry     =   1.484024  2.804400 29.964500  2.202329
  Thomas-Fermi vector in A             =   2.597613

 Write flags
   LWAVE        =      F    write WAVECAR
   LDOWNSAMPLE  =      F    k-point downsampling of WAVECAR
   LCHARG       =      F    write CHGCAR
   LVTOT        =      F    write LOCPOT, total local potential
   LVHAR        =      F    write LOCPOT, Hartree potential only
   LELF         =      F    write electronic localiz. function (ELF)
   LORBIT       =      0    0 simple, 1 ext, 2 COOP (PROOUT), +10 PAW based schemes


 Dipole corrections
   LMONO  =      F    monopole corrections only (constant potential shift)
   LDIPOL =      F    correct potential (dipole corrections)
   IDIPOL =      0    1-x, 2-y, 3-z, 4-all directions
   EPSILON=  1.0000000 bulk dielectric constant

 Exchange correlation treatment:
   GGA     =    RE    GGA type
   LEXCH   =    40    internal setting for exchange type
   LIBXC   =     F    Libxc
   VOSKOWN =     0    Vosko Wilk Nusair interpolation
   LHFCALC =     F    Hartree Fock is set to
   LHFONE  =     F    Hartree Fock one center treatment
   AEXX    =    0.0000 exact exchange contribution

 Linear response parameters
   LEPSILON=     F    determine dielectric tensor
   LRPA    =     F    only Hartree local field effects (RPA)
   LNABLA  =     F    use nabla operator in PAW spheres
   LVEL    =     F    velocity operator in full k-point grid
   CSHIFT  =0.1000    complex shift for real part using Kramers Kronig
   OMEGAMAX=  -1.0    maximum frequency
   DEG_THRESHOLD= 0.2000000E-02 threshold for treating states as degnerate
   RTIME   =   -0.100 relaxation time in fs
  (WPLASMAI=    0.000 imaginary part of plasma frequency in eV, 0.658/RTIME)
   DFIELD  = 0.0000000 0.0000000 0.0000000 field for delta impulse in time

  Optional k-point grid parameters
   LKPOINTS_OPT  =     F    use optional k-point grid
   KPOINTS_OPT_MODE=     1    mode for optional k-point grid

 Orbital magnetization related:
   ORBITALMAG=     F  switch on orbital magnetization
   LCHIMAG   =     F  perturbation theory with respect to B field
   DQ        =  0.001000  dq finite difference perturbation B field
   LLRAUG    =     F  two centre corrections for induced B field



--------------------------------------------------------------------------------------------------------


 conjugate gradient relaxation of ions
 charge density and potential will be updated during run
 non-spin polarized calculation
 Conjugate gradient for all bands (Freysoldt, et al. PRB 79, 241103 (2009))
 preconditioned conjugated gradient
 perform sub-space diagonalisation
    before iterative eigenvector-optimisation
 modified Broyden-mixing scheme, WC =      100.0
 initial mixing is a Kerker type mixing with AMIX =  0.4000 and BMIX =      1.0000
 Hartree-type preconditioning will be used
 using additional bands           68
 reciprocal scheme for non local part
 use partial core corrections
 no Harris-corrections to forces
 use gradient corrections
 use of overlap-Matrix (Vanderbilt PP)
 Gauss-broadening in eV      SIGMA  =   0.05


--------------------------------------------------------------------------------------------------------


  energy-cutoff  :      600.00
  volume of cell :       75.18
      direct lattice vectors                 reciprocal lattice vectors
     4.220492327 -0.000000000  0.000000000     0.236939182  0.000000000  0.000000000
     0.000000000  4.220492327 -0.000000000     0.000000000  0.236939182  0.000000000
    -0.000000000  0.000000000  4.220492327     0.000000000  0.000000000  0.236939182

  length of vectors
     4.220492327  4.220492327  4.220492327     0.236939182  0.236939182  0.236939182



 k-points in units of 2pi/SCALE and weight: pymatgen v2020.8.13 with grid density =
   0.00000000  0.00000000  0.00000000       0.002
   0.02961740  0.00000000  0.00000000       0.012
   0.05923480  0.00000000  0.00000000       0.012
   0.08885219  0.00000000  0.00000000       0.012
   0.11846959  0.00000000  0.00000000       0.006
   0.02961740  0.02961740  0.00000000       0.023
   0.05923480  0.02961740  0.00000000       0.047
   0.08885219  0.02961740  0.00000000       0.047
   0.11846959  0.02961740  0.00000000       0.023
   0.05923480  0.05923480  0.00000000       0.023
   0.08885219  0.05923480  0.00000000       0.047
   0.11846959  0.05923480  0.00000000       0.023
   0.08885219  0.08885219  0.00000000       0.023
   0.11846959  0.08885219  0.00000000       0.023
   0.11846959  0.11846959  0.00000000       0.006
   0.02961740  0.02961740  0.02961740       0.016
   0.05923480  0.02961740  0.02961740       0.047
   0.08885219  0.02961740  0.02961740       0.047
   0.11846959  0.02961740  0.02961740       0.023
   0.05923480  0.05923480  0.02961740       0.047
   0.08885219  0.05923480  0.02961740       0.094
   0.11846959  0.05923480  0.02961740       0.047
   0.08885219  0.08885219  0.02961740       0.047
   0.11846959  0.08885219  0.02961740       0.047
   0.11846959  0.11846959  0.02961740       0.012
   0.05923480  0.05923480  0.05923480       0.016
   0.08885219  0.05923480  0.05923480       0.047
   0.11846959  0.05923480  0.05923480       0.023
   0.08885219  0.08885219  0.05923480       0.047
   0.11846959  0.08885219  0.05923480       0.047
   0.11846959  0.11846959  0.05923480       0.012
   0.08885219  0.08885219  0.08885219       0.016
   0.11846959  0.08885219  0.08885219       0.023
   0.11846959  0.11846959  0.08885219       0.012
   0.11846959  0.11846959  0.11846959       0.002

 k-points in reciprocal lattice and weights: pymatgen v2020.8.13 with grid density =
   0.00000000  0.00000000  0.00000000       0.002
   0.12500000  0.00000000  0.00000000       0.012
   0.25000000  0.00000000  0.00000000       0.012
   0.37500000  0.00000000  0.00000000       0.012
   0.50000000  0.00000000  0.00000000       0.006
   0.12500000  0.12500000  0.00000000       0.023
   0.25000000  0.12500000  0.00000000       0.047
   0.37500000  0.12500000  0.00000000       0.047
   0.50000000  0.12500000  0.00000000       0.023
   0.25000000  0.25000000  0.00000000       0.023
   0.37500000  0.25000000  0.00000000       0.047
   0.50000000  0.25000000  0.00000000       0.023
   0.37500000  0.37500000  0.00000000       0.023
   0.50000000  0.37500000  0.00000000       0.023
   0.50000000  0.50000000  0.00000000       0.006
   0.12500000  0.12500000  0.12500000       0.016
   0.25000000  0.12500000  0.12500000       0.047
   0.37500000  0.12500000  0.12500000       0.047
   0.50000000  0.12500000  0.12500000       0.023
   0.25000000  0.25000000  0.12500000       0.047
   0.37500000  0.25000000  0.12500000       0.094
   0.50000000  0.25000000  0.12500000       0.047
   0.37500000  0.37500000  0.12500000       0.047
   0.50000000  0.37500000  0.12500000       0.047
   0.50000000  0.50000000  0.12500000       0.012
   0.25000000  0.25000000  0.25000000       0.016
   0.37500000  0.25000000  0.25000000       0.047
   0.50000000  0.25000000  0.25000000       0.023
   0.37500000  0.37500000  0.25000000       0.047
   0.50000000  0.37500000  0.25000000       0.047
   0.50000000  0.50000000  0.25000000       0.012
   0.37500000  0.37500000  0.37500000       0.016
   0.50000000  0.37500000  0.37500000       0.023
   0.50000000  0.50000000  0.37500000       0.012
   0.50000000  0.50000000  0.50000000       0.002

 position of ions in fractional coordinates (direct lattice)
   0.00000000  0.00000000  0.00000000
   0.00000000  0.50000000  0.50000000
   0.50000000  0.00000000  0.50000000
   0.50000000  0.50000000  0.00000000
   0.50000000  0.00000000  0.00000000
   0.50000000  0.50000000  0.50000000
   0.00000000  0.00000000  0.50000000
   0.00000000  0.50000000  0.00000000

 position of ions in cartesian coordinates  (Angst):
   0.00000000  0.00000000  0.00000000
   0.00000000  2.11024616  2.11024616
   2.11024616  0.00000000  2.11024616
   2.11024616  2.11024616  0.00000000
   2.11024616  0.00000000  0.00000000
   2.11024616  2.11024616  2.11024616
   0.00000000  0.00000000  2.11024616
   0.00000000  2.11024616  0.00000000



--------------------------------------------------------------------------------------------------------


 k-point   1 :   0.0000 0.0000 0.0000  plane waves:    2517
 k-point   2 :   0.1250 0.0000 0.0000  plane waves:    2513
 k-point   3 :   0.2500 0.0000 0.0000  plane waves:    2501
 k-point   4 :   0.3750 0.0000 0.0000  plane waves:    2497
 k-point   5 :   0.5000 0.0000 0.0000  plane waves:    2496
 k-point   6 :   0.1250 0.1250 0.0000  plane waves:    2514
 k-point   7 :   0.2500 0.1250 0.0000  plane waves:    2507
 k-point   8 :   0.3750 0.1250 0.0000  plane waves:    2510
 k-point   9 :   0.5000 0.1250 0.0000  plane waves:    2514
 k-point  10 :   0.2500 0.2500 0.0000  plane waves:    2512
 k-point  11 :   0.3750 0.2500 0.0000  plane waves:    2526
 k-point  12 :   0.5000 0.2500 0.0000  plane waves:    2522
 k-point  13 :   0.3750 0.3750 0.0000  plane waves:    2522
 k-point  14 :   0.5000 0.3750 0.0000  plane waves:    2508
 k-point  15 :   0.5000 0.5000 0.0000  plane waves:    2496
 k-point  16 :   0.1250 0.1250 0.1250  plane waves:    2523
 k-point  17 :   0.2500 0.1250 0.1250  plane waves:    2511
 k-point  18 :   0.3750 0.1250 0.1250  plane waves:    2514
 k-point  19 :   0.5000 0.1250 0.1250  plane waves:    2508
 k-point  20 :   0.2500 0.2500 0.1250  plane waves:    2511
 k-point  21 :   0.3750 0.2500 0.1250  plane waves:    2512
 k-point  22 :   0.5000 0.2500 0.1250  plane waves:    2500
 k-point  23 :   0.3750 0.3750 0.1250  plane waves:    2516
 k-point  24 :   0.5000 0.3750 0.1250  plane waves:    2504
 k-point  25 :   0.5000 0.5000 0.1250  plane waves:    2512
 k-point  26 :   0.2500 0.2500 0.2500  plane waves:    2494
 k-point  27 :   0.3750 0.2500 0.2500  plane waves:    2509
 k-point  28 :   0.5000 0.2500 0.2500  plane waves:    2516
 k-point  29 :   0.3750 0.3750 0.2500  plane waves:    2494
 k-point  30 :   0.5000 0.3750 0.2500  plane waves:    2504
 k-point  31 :   0.5000 0.5000 0.2500  plane waves:    2484
 k-point  32 :   0.3750 0.3750 0.3750  plane waves:    2485
 k-point  33 :   0.5000 0.3750 0.3750  plane waves:    2492
 k-point  34 :   0.5000 0.5000 0.3750  plane waves:    2480
 k-point  35 :   0.5000 0.5000 0.5000  plane waves:    2512

 maximum and minimum number of plane-waves per node :       644      614

 maximum number of plane-waves:      2526
 maximum index in each direction:
   IXMAX=    8   IYMAX=    8   IZMAX=    8
   IXMIN=   -8   IYMIN=   -8   IZMIN=   -8


 parallel 3D FFT for wavefunctions:
    minimum data exchange during FFTs selected (reduces bandwidth)
 parallel 3D FFT for charge:
    minimum data exchange during FFTs selected (reduces bandwidth)


 total amount of memory used by VASP MPI-rank0    37050. kBytes
=======================================================================

   base      :      30000. kBytes
   nonl-proj :       4978. kBytes
   fftplans  :        364. kBytes
   grid      :        402. kBytes
   one-center:         16. kBytes
   wavefun   :       1290. kBytes

     INWAV:  cpu time      0.0001: real time      0.0003
 Broyden mixing: mesh for mixing (old mesh)
   NGX = 17   NGY = 17   NGZ = 17
  (NGX  = 56   NGY  = 56   NGZ  = 56)
  gives a total of   4913 points

 initial charge density was supplied:
 charge density of overlapping atoms calculated
 number of electron      56.0000000 magnetization
 keeping initial charge density in first step


--------------------------------------------------------------------------------------------------------


 Maximum index for augmentation-charges          377 (set IRDMAX)


--------------------------------------------------------------------------------------------------------


 First call to EWALD:  gamma=   0.420
 Maximum number of real-space cells 3x 3x 3
 Maximum number of reciprocal cells 3x 3x 3

    FEWALD:  cpu time      0.0008: real time      0.0008


--------------------------------------- Iteration      1(   1)  ---------------------------------------


    POTLOK:  cpu time      0.0309: real time      0.0313
    SETDIJ:  cpu time      0.1173: real time      0.1174
    TRIAL :  cpu time      3.0069: real time      3.0075
    CORREC:  cpu time      0.0007: real time      0.0008
    --------------------------------------------
      LOOP:  cpu time      3.1574: real time      3.1593

 eigenvalue-minimisations  :  6720
 total energy-change (2. order) : 0.5521942E+02  (-0.4722832E+04)
 number of electron      56.0000000 magnetization
 augmentation part       56.0000000 magnetization

 Free energy of the ion-electron system (eV)
  ---------------------------------------------------
  alpha Z        PSCENC =       276.47732588
  Ewald energy   TEWEN  =     -3842.45628067
  -Hartree energ DENC   =     -1181.63307528
  -exchange      EXHF   =         0.00000000
  -V(xc)+E(xc)   XCENC  =       217.65593801
  PAW double counting   =      3985.66603923    -4458.81632743
  entropy T*S    EENTRO =        -0.00000000
  eigenvalues    EBANDS =      -893.85433385
  atomic energy  EATOM  =      5952.18013339
  ---------------------------------------------------
  free energy    TOTEN  =        55.21941928 eV

  energy without entropy =       55.21941928  energy(sigma->0) =       55.21941928


--------------------------------------------------------------------------------------------------------




--------------------------------------- Iteration      1(   2)  ---------------------------------------


    TRIAL :  cpu time      7.3277: real time      7.3282
    CORREC:  cpu time      0.0005: real time      0.0005
    --------------------------------------------
      LOOP:  cpu time      7.3323: real time      7.3426

 eigenvalue-minimisations  : 10080
 total energy-change (2. order) :-0.1063516E+03  (-0.1063516E+03)
 number of electron      56.0000000 magnetization
 augmentation part       56.0000000 magnetization

 Free energy of the ion-electron system (eV)
  ---------------------------------------------------
  alpha Z        PSCENC =       276.47732588
  Ewald energy   TEWEN  =     -3842.45628067
  -Hartree energ DENC   =     -1181.63307528
  -exchange      EXHF   =         0.00000000
  -V(xc)+E(xc)   XCENC  =       217.65593801
  PAW double counting   =      3985.66603923    -4458.81632743
  entropy T*S    EENTRO =        -0.00000000
  eigenvalues    EBANDS =     -1000.20590968
  atomic energy  EATOM  =      5952.18013339
  ---------------------------------------------------
  free energy    TOTEN  =       -51.13215656 eV

  energy without entropy =      -51.13215656  energy(sigma->0) =      -51.13215656


--------------------------------------------------------------------------------------------------------




--------------------------------------- Iteration      1(   3)  ---------------------------------------


    TRIAL :  cpu time      2.8493: real time      2.8495
    CORREC:  cpu time      0.0005: real time      0.0005
    --------------------------------------------
      LOOP:  cpu time      2.8539: real time      2.8636

 eigenvalue-minimisations  :  6720
 total energy-change (2. order) :-0.1603617E+00  (-0.1603617E+00)
 number of electron      56.0000000 magnetization
 augmentation part       56.0000000 magnetization

 Free energy of the ion-electron system (eV)
  ---------------------------------------------------
  alpha Z        PSCENC =       276.47732588
  Ewald energy   TEWEN  =     -3842.45628067
  -Hartree energ DENC   =     -1181.63307528
  -exchange      EXHF   =         0.00000000
  -V(xc)+E(xc)   XCENC  =       217.65593801
  PAW double counting   =      3985.66603923    -4458.81632743
  entropy T*S    EENTRO =        -0.00000000
  eigenvalues    EBANDS =     -1000.36627138
  atomic energy  EATOM  =      5952.18013339
  ---------------------------------------------------
  free energy    TOTEN  =       -51.29251826 eV

  energy without entropy =      -51.29251826  energy(sigma->0) =      -51.29251826


--------------------------------------------------------------------------------------------------------




--------------------------------------- Iteration      1(   4)  ---------------------------------------


    TRIAL :  cpu time     14.7219: real time     14.7232
    CORREC:  cpu time      0.0005: real time      0.0005
    --------------------------------------------
      LOOP:  cpu time     14.7265: real time     14.7374

 eigenvalue-minimisations  : 13248
 total energy-change (2. order) :-0.1020511E-03  (-0.1020511E-03)
 number of electron      56.0000000 magnetization
 augmentation part       56.0000000 magnetization

 Free energy of the ion-electron system (eV)
  ---------------------------------------------------
  alpha Z        PSCENC =       276.47732588
  Ewald energy   TEWEN  =     -3842.45628067
  -Hartree energ DENC   =     -1181.63307528
  -exchange      EXHF   =         0.00000000
  -V(xc)+E(xc)   XCENC  =       217.65593801
  PAW double counting   =      3985.66603923    -4458.81632743
  entropy T*S    EENTRO =        -0.00000000
  eigenvalues    EBANDS =     -1000.36637343
  atomic energy  EATOM  =      5952.18013339
  ---------------------------------------------------
  free energy    TOTEN  =       -51.29262031 eV

  energy without entropy =      -51.29262031  energy(sigma->0) =      -51.29262031


--------------------------------------------------------------------------------------------------------




--------------------------------------- Iteration      1(   5)  ---------------------------------------


    TRIAL :  cpu time      2.7282: real time      2.7283
    CORREC:  cpu time      0.0005: real time      0.0005
    CHARGE:  cpu time      0.0105: real time      0.0105
    --------------------------------------------
      LOOP:  cpu time      2.7436: real time      2.7530

 eigenvalue-minimisations  :  6720
 total energy-change (2. order) :-0.3874447E-09  (-0.3859946E-09)
 number of electron      55.9999922 magnetization
 augmentation part       19.8470395 magnetization

 Free energy of the ion-electron system (eV)
  ---------------------------------------------------
  alpha Z        PSCENC =       276.47732588
  Ewald energy   TEWEN  =     -3842.45628067
  -Hartree energ DENC   =     -1181.63307528
  -exchange      EXHF   =         0.00000000
  -V(xc)+E(xc)   XCENC  =       217.65593801
  PAW double counting   =      3985.66603923    -4458.81632743
  entropy T*S    EENTRO =        -0.00000000
  eigenvalues    EBANDS =     -1000.36637343
  atomic energy  EATOM  =      5952.18013339
  ---------------------------------------------------
  free energy    TOTEN  =       -51.29262031 eV

  energy without entropy =      -51.29262031  energy(sigma->0) =      -51.29262031


--------------------------------------------------------------------------------------------------------




--------------------------------------- Iteration      1(   6)  ---------------------------------------


    POTLOK:  cpu time      0.0113: real time      0.0113
    SETDIJ:  cpu time      0.1149: real time      0.1149
    TRIAL :  cpu time     12.2749: real time     12.2758
    CORREC:  cpu time      0.5222: real time      0.5225
    CHARGE:  cpu time      0.0087: real time      0.0087
    --------------------------------------------
      LOOP:  cpu time     12.9370: real time     12.9471

 eigenvalue-minimisations  :     0
 total energy-change (2. order) : 0.1724391E+02  (-0.1048763E+02)
 number of electron      55.9999931 magnetization
 augmentation part       19.3824195 magnetization

 Free energy of the ion-electron system (eV)
  ---------------------------------------------------
  alpha Z        PSCENC =       276.47732588
  Ewald energy   TEWEN  =     -3842.45628067
  -Hartree energ DENC   =     -1335.74087623
  -exchange      EXHF   =         0.00000000
  -V(xc)+E(xc)   XCENC  =       230.93194446
  PAW double counting   =      4538.51756605    -5006.77121026
  entropy T*S    EENTRO =        -0.00000000
  eigenvalues    EBANDS =      -847.18730842
  atomic energy  EATOM  =      5952.18013339
  ---------------------------------------------------
  free energy    TOTEN  =       -34.04870580 eV

  energy without entropy =      -34.04870580  energy(sigma->0) =      -34.04870580


--------------------------------------------------------------------------------------------------------




--------------------------------------- Iteration      1(   7)  ---------------------------------------


    POTLOK:  cpu time      0.0099: real time      0.0099
    SETDIJ:  cpu time      0.1147: real time      0.1147
    TRIAL :  cpu time      0.4331: real time      0.4331
    CORREC:  cpu time      0.5169: real time      0.5169
    CHARGE:  cpu time      0.0085: real time      0.0085
    --------------------------------------------
      LOOP:  cpu time      1.0962: real time      1.0968

 eigenvalue-minimisations  :     0
 total energy-change (2. order) :-0.1037801E+02  (-0.5761587E+00)
 number of electron      55.9999931 magnetization
 augmentation part       19.3252151 magnetization

 Free energy of the ion-electron system (eV)
  ---------------------------------------------------
  alpha Z        PSCENC =       276.47732588
  Ewald energy   TEWEN  =     -3842.45628067
  -Hartree energ DENC   =     -1230.17213270
  -exchange      EXHF   =         0.00000000
  -V(xc)+E(xc)   XCENC  =       222.96928450
  PAW double counting   =      4493.17503853    -4966.05554240
  entropy T*S    EENTRO =        -0.00000000
  eigenvalues    EBANDS =      -950.54453904
  atomic energy  EATOM  =      5952.18013339
  ---------------------------------------------------
  free energy    TOTEN  =       -44.42671252 eV

  energy without entropy =      -44.42671252  energy(sigma->0) =      -44.42671252


--------------------------------------------------------------------------------------------------------




--------------------------------------- Iteration      1(   8)  ---------------------------------------


    POTLOK:  cpu time      0.0090: real time      0.0090
    SETDIJ:  cpu time      0.1150: real time      0.1150
    TRIAL :  cpu time      0.4315: real time      0.4315
    CORREC:  cpu time      0.5163: real time      0.5163
    CHARGE:  cpu time      0.0084: real time      0.0084
    --------------------------------------------
      LOOP:  cpu time      1.0840: real time      1.0942

 eigenvalue-minimisations  :     0
 total energy-change (2. order) :-0.5802502E+00  (-0.3453183E-01)
 number of electron      55.9999931 magnetization
 augmentation part       19.3500037 magnetization

 Free energy of the ion-electron system (eV)
  ---------------------------------------------------
  alpha Z        PSCENC =       276.47732588
  Ewald energy   TEWEN  =     -3842.45628067
  -Hartree energ DENC   =     -1227.79387505
  -exchange      EXHF   =         0.00000000
  -V(xc)+E(xc)   XCENC  =       222.58749253
  PAW double counting   =      4404.08786545    -4876.31993393
  entropy T*S    EENTRO =        -0.00000000
  eigenvalues    EBANDS =      -953.76969026
  atomic energy  EATOM  =      5952.18013339
  ---------------------------------------------------
  free energy    TOTEN  =       -45.00696267 eV

  energy without entropy =      -45.00696267  energy(sigma->0) =      -45.00696267


--------------------------------------------------------------------------------------------------------




--------------------------------------- Iteration      1(   9)  ---------------------------------------


    POTLOK:  cpu time      0.0102: real time      0.0102
    SETDIJ:  cpu time      0.1140: real time      0.1140
    TRIAL :  cpu time      0.4333: real time      0.4336
    CORREC:  cpu time      0.5163: real time      0.5163
    CHARGE:  cpu time      0.0084: real time      0.0084
    --------------------------------------------
      LOOP:  cpu time      1.0870: real time      1.0959

 eigenvalue-minimisations  :     0
 total energy-change (2. order) :-0.3455266E-01  (-0.2456425E-02)
 number of electron      55.9999931 magnetization
 augmentation part       19.3505903 magnetization

 Free energy of the ion-electron system (eV)
  ---------------------------------------------------
  alpha Z        PSCENC =       276.47732588
  Ewald energy   TEWEN  =     -3842.45628067
  -Hartree energ DENC   =     -1228.38212936
  -exchange      EXHF   =         0.00000000
  -V(xc)+E(xc)   XCENC  =       222.62145079
  PAW double counting   =      4398.00230347    -4871.34881401
  entropy T*S    EENTRO =        -0.00000000
  eigenvalues    EBANDS =      -952.13550482
  atomic energy  EATOM  =      5952.18013339
  ---------------------------------------------------
  free energy    TOTEN  =       -45.04151534 eV

  energy without entropy =      -45.04151534  energy(sigma->0) =      -45.04151534


--------------------------------------------------------------------------------------------------------




--------------------------------------- Iteration      1(  10)  ---------------------------------------


    POTLOK:  cpu time      0.0084: real time      0.0084
    SETDIJ:  cpu time      0.1160: real time      0.1160
    TRIAL :  cpu time      0.4314: real time      0.4314
    CORREC:  cpu time      0.5140: real time      0.5140
    CHARGE:  cpu time      0.0084: real time      0.0084
    --------------------------------------------
      LOOP:  cpu time      1.0913: real time      1.0919

 eigenvalue-minimisations  :     0
 total energy-change (2. order) :-0.2462476E-02  (-0.2033387E-03)
 number of electron      55.9999931 magnetization
 augmentation part       19.3497758 magnetization

 Free energy of the ion-electron system (eV)
  ---------------------------------------------------
  alpha Z        PSCENC =       276.47732588
  Ewald energy   TEWEN  =     -3842.45628067
  -Hartree energ DENC   =     -1228.07863177
  -exchange      EXHF   =         0.00000000
  -V(xc)+E(xc)   XCENC  =       222.59762889
  PAW double counting   =      4393.86944201    -4867.15648542
  entropy T*S    EENTRO =        -0.00000000
  eigenvalues    EBANDS =      -952.47711011
  atomic energy  EATOM  =      5952.18013339
  ---------------------------------------------------
  free energy    TOTEN  =       -45.04397781 eV

  energy without entropy =      -45.04397781  energy(sigma->0) =      -45.04397781


--------------------------------------------------------------------------------------------------------




--------------------------------------- Iteration      1(  11)  ---------------------------------------


    POTLOK:  cpu time      0.0085: real time      0.0085
    SETDIJ:  cpu time      0.1153: real time      0.1153
    TRIAL :  cpu time      0.4330: real time      0.4330
    CORREC:  cpu time      0.5163: real time      0.5164
    CHARGE:  cpu time      0.0103: real time      0.0103
    --------------------------------------------
      LOOP:  cpu time      1.0883: real time      1.0971

 eigenvalue-minimisations  :     0
 total energy-change (2. order) :-0.2042443E-03  (-0.6287891E-04)
 number of electron      55.9999931 magnetization
 augmentation part       19.3496864 magnetization

 Free energy of the ion-electron system (eV)
  ---------------------------------------------------
  alpha Z        PSCENC =       276.47732588
  Ewald energy   TEWEN  =     -3842.45628067
  -Hartree energ DENC   =     -1227.99584152
  -exchange      EXHF   =         0.00000000
  -V(xc)+E(xc)   XCENC  =       222.58984752
  PAW double counting   =      4392.88033449    -4866.11315323
  entropy T*S    EENTRO =        -0.00000000
  eigenvalues    EBANDS =      -952.60654791
  atomic energy  EATOM  =      5952.18013339
  ---------------------------------------------------
  free energy    TOTEN  =       -45.04418206 eV

  energy without entropy =      -45.04418206  energy(sigma->0) =      -45.04418206


--------------------------------------------------------------------------------------------------------




--------------------------------------- Iteration      1(  12)  ---------------------------------------


    POTLOK:  cpu time      0.0104: real time      0.0104
    SETDIJ:  cpu time      0.1127: real time      0.1127
    TRIAL :  cpu time      0.4315: real time      0.4315
    CORREC:  cpu time      0.5131: real time      0.5132
    CHARGE:  cpu time      0.0084: real time      0.0084
    --------------------------------------------
      LOOP:  cpu time      1.0890: real time      1.0892

 eigenvalue-minimisations  :     0
 total energy-change (2. order) :-0.6268292E-04  (-0.1660815E-04)
 number of electron      55.9999931 magnetization
 augmentation part       19.3497159 magnetization

 Free energy of the ion-electron system (eV)
  ---------------------------------------------------
  alpha Z        PSCENC =       276.47732588
  Ewald energy   TEWEN  =     -3842.45628067
  -Hartree energ DENC   =     -1227.99224174
  -exchange      EXHF   =         0.00000000
  -V(xc)+E(xc)   XCENC  =       222.58809863
  PAW double counting   =      4393.12626107    -4866.34472527
  entropy T*S    EENTRO =        -0.00000000
  eigenvalues    EBANDS =      -952.62281603
  atomic energy  EATOM  =      5952.18013339
  ---------------------------------------------------
  free energy    TOTEN  =       -45.04424474 eV

  energy without entropy =      -45.04424474  energy(sigma->0) =      -45.04424474


--------------------------------------------------------------------------------------------------------




--------------------------------------- Iteration      1(  13)  ---------------------------------------


    POTLOK:  cpu time      0.0100: real time      0.0100
    SETDIJ:  cpu time      0.1132: real time      0.1133
    TRIAL :  cpu time      0.4303: real time      0.4303
    CORREC:  cpu time      0.5155: real time      0.5155
    CHARGE:  cpu time      0.0083: real time      0.0083
    --------------------------------------------
      LOOP:  cpu time      1.0894: real time      1.0898

 eigenvalue-minimisations  :     0
 total energy-change (2. order) :-0.1652435E-04  (-0.2528810E-05)
 number of electron      55.9999931 magnetization
 augmentation part       19.3496488 magnetization

 Free energy of the ion-electron system (eV)
  ---------------------------------------------------
  alpha Z        PSCENC =       276.47732588
  Ewald energy   TEWEN  =     -3842.45628067
  -Hartree energ DENC   =     -1228.00349873
  -exchange      EXHF   =         0.00000000
  -V(xc)+E(xc)   XCENC  =       222.58856827
  PAW double counting   =      4393.35989696    -4866.57602098
  entropy T*S    EENTRO =        -0.00000000
  eigenvalues    EBANDS =      -952.61438537
  atomic energy  EATOM  =      5952.18013339
  ---------------------------------------------------
  free energy    TOTEN  =       -45.04426126 eV

  energy without entropy =      -45.04426126  energy(sigma->0) =      -45.04426126


--------------------------------------------------------------------------------------------------------




--------------------------------------- Iteration      1(  14)  ---------------------------------------


    POTLOK:  cpu time      0.0104: real time      0.0104
    SETDIJ:  cpu time      0.1131: real time      0.1131
    TRIAL :  cpu time      0.4315: real time      0.4315
    CORREC:  cpu time      0.5171: real time      0.5172
    CHARGE:  cpu time      0.0084: real time      0.0084
    --------------------------------------------
      LOOP:  cpu time      1.0852: real time      1.0939

 eigenvalue-minimisations  :     0
 total energy-change (2. order) :-0.2591384E-05  (-0.2509363E-06)
 number of electron      55.9999931 magnetization
 augmentation part       19.3496623 magnetization

 Free energy of the ion-electron system (eV)
  ---------------------------------------------------
  alpha Z        PSCENC =       276.47732588
  Ewald energy   TEWEN  =     -3842.45628067
  -Hartree energ DENC   =     -1228.00228946
  -exchange      EXHF   =         0.00000000
  -V(xc)+E(xc)   XCENC  =       222.58842820
  PAW double counting   =      4393.39037564    -4866.60162190
  entropy T*S    EENTRO =        -0.00000000
  eigenvalues    EBANDS =      -952.62033492
  atomic energy  EATOM  =      5952.18013339
  ---------------------------------------------------
  free energy    TOTEN  =       -45.04426386 eV

  energy without entropy =      -45.04426386  energy(sigma->0) =      -45.04426386


--------------------------------------------------------------------------------------------------------




--------------------------------------- Iteration      1(  15)  ---------------------------------------


    POTLOK:  cpu time      0.0103: real time      0.0103
    SETDIJ:  cpu time      0.1135: real time      0.1135
    TRIAL :  cpu time      0.4315: real time      0.4316
    CORREC:  cpu time      0.5154: real time      0.5154
    CHARGE:  cpu time      0.0084: real time      0.0084
    --------------------------------------------
      LOOP:  cpu time      1.0851: real time      1.0929

 eigenvalue-minimisations  :     0
 total energy-change (2. order) :-0.2642537E-06  (-0.4521692E-07)
 number of electron      55.9999931 magnetization
 augmentation part       19.3496866 magnetization

 Free energy of the ion-electron system (eV)
  ---------------------------------------------------
  alpha Z        PSCENC =       276.47732588
  Ewald energy   TEWEN  =     -3842.45628067
  -Hartree energ DENC   =     -1228.00375610
  -exchange      EXHF   =         0.00000000
  -V(xc)+E(xc)   XCENC  =       222.58851611
  PAW double counting   =      4393.40792780    -4866.61938503
  entropy T*S    EENTRO =        -0.00000000
  eigenvalues    EBANDS =      -952.61874550
  atomic energy  EATOM  =      5952.18013339
  ---------------------------------------------------
  free energy    TOTEN  =       -45.04426412 eV

  energy without entropy =      -45.04426412  energy(sigma->0) =      -45.04426412


--------------------------------------------------------------------------------------------------------




--------------------------------------- Iteration      1(  16)  ---------------------------------------


    POTLOK:  cpu time      0.0091: real time      0.0091
    SETDIJ:  cpu time      0.1149: real time      0.1149
    TRIAL :  cpu time      0.4319: real time      0.4319
    CORREC:  cpu time      0.5143: real time      0.5143
    EDDIAG:  cpu time      0.3503: real time      0.3504
    CHARGE:  cpu time      0.0083: real time      0.0083
    --------------------------------------------
      LOOP:  cpu time      1.4331: real time      1.4425

 eigenvalue-minimisations  :     0
 total energy-change (2. order) :-0.4704179E-07  (-0.1062295E-07)
 number of electron      55.9999931 magnetization
 augmentation part       19.3497019 magnetization

 Free energy of the ion-electron system (eV)
  ---------------------------------------------------
  alpha Z        PSCENC =       276.47732588
  Ewald energy   TEWEN  =     -3842.45628067
  -Hartree energ DENC   =     -1228.00554415
  -exchange      EXHF   =         0.00000000
  -V(xc)+E(xc)   XCENC  =       222.58864028
  PAW double counting   =      4393.41746350    -4866.63011350
  entropy T*S    EENTRO =        -0.00000000
  eigenvalues    EBANDS =      -952.61588889
  atomic energy  EATOM  =      5952.18013339
  ---------------------------------------------------
  free energy    TOTEN  =       -45.04426417 eV

  energy without entropy =      -45.04426417  energy(sigma->0) =      -45.04426417


--------------------------------------------------------------------------------------------------------


  average scaling for gradient   1.3855


 average (electrostatic) potential at core
  the test charge radii are     0.8294  0.7215
  (the norm of the test charge is              1.0000)
       1 -41.5214       2 -41.5214       3 -41.5214       4 -41.5214       5 -69.9643
       6 -69.9643       7 -69.9643       8 -69.9643



 E-fermi :   3.2686     XC(G=0): -11.2098     alpha+bet :-12.7070

 Fermi energy:         3.2685789301

 k-point     1 :       0.0000    0.0000    0.0000
  band No.  band energies     occupation
      1     -36.2701      2.00000
      2     -36.2701      2.00000
      3     -36.2701      2.00000
      4     -36.2270      2.00000
      5     -36.2270      2.00000
      6     -36.2270      2.00000
      7     -36.2270      2.00000
      8     -36.2270      2.00000
      9     -36.2270      2.00000
     10     -36.1988      2.00000
     11     -36.1988      2.00000
     12     -36.1988      2.00000
     13     -14.4107      2.00000
     14     -12.9053      2.00000
     15     -12.9053      2.00000
     16     -12.9053      2.00000
     17      -1.1283      2.00000
     18      -1.1283      2.00000
     19      -1.1283      2.00000
     20       1.5574      2.00000
     21       1.5574      2.00000
     22       1.5574      2.00000
     23       1.5574      2.00000
     24       1.5574      2.00000
     25       1.5574      2.00000
     26       2.8826      2.00000
     27       2.8826      2.00000
     28       2.8826      2.00000
     29       7.6437      0.00000
     30      12.0761      0.00000
     31      12.0761      0.00000
     32      12.0761      0.00000
     33      12.9645      0.00000
     34      12.9645      0.00000
     35      12.9645      0.00000
     36      16.0131      0.00000
     37      16.0131      0.00000
     38      16.0131      0.00000
     39      18.7515      0.00000
     40      18.7515      0.00000
     41      18.7515      0.00000
     42      21.9474      0.00000
     43      21.9474      0.00000
     44      21.9474      0.00000
     45      21.9474      0.00000
     46      21.9474      0.00000
     47      21.9474      0.00000
     48      22.6004      0.00000
     49      24.4377      0.00000
     50      24.4377      0.00000
     51      27.3496      0.00000
     52      27.3496      0.00000
     53      27.3496      0.00000
     54      28.2009      0.00000
     55      28.2009      0.00000
     56      28.2009      0.00000
     57      29.7866      0.00000
     58      29.7866      0.00000
     59      29.7866      0.00000
     60      33.7271      0.00000
     61      33.7271      0.00000
     62      33.7271      0.00000
     63      33.7271      0.00000
     64      33.7271      0.00000
     65      33.7271      0.00000
     66      37.1909      0.00000
     67      37.1909      0.00000
     68      37.1909      0.00000
     69      39.9549      0.00000
     70      39.9549      0.00000
     71      39.9549      0.00000
     72      39.9549      0.00000
     73      39.9549      0.00000
     74      39.9549      0.00000
     75      41.2203      0.00000
     76      41.2203      0.00000
     77      41.2203      0.00000
     78      41.7846      0.00000
     79      41.8981      0.00000
     80      41.8981      0.00000
     81      41.8981      0.00000
     82      44.3375      0.00000
     83      44.3375      0.00000
     84      44.3375      0.00000
     85      44.3375      0.00000
     86      44.3375      0.00000
     87      44.3375      0.00000
     88      45.5998      0.00000
     89      45.5998      0.00000
     90      45.5998      0.00000
     91      46.4884      0.00000
     92      46.4884      0.00000
     93      46.4884      0.00000
     94      51.9764      0.00000
     95      51.9764      0.00000
     96      51.9764      0.00000

 k-point     2 :       0.1250    0.0000    0.0000
  band No.  band energies     occupation
      1     -36.2684      2.00000
      2     -36.2684      2.00000
      3     -36.2675      2.00000
      4     -36.2285      2.00000
      5     -36.2285      2.00000
      6     -36.2273      2.00000
      7     -36.2273      2.00000
      8     -36.2258      2.00000
      9     -36.2258      2.00000
     10     -36.2022      2.00000
     11     -36.1999      2.00000
     12     -36.1999      2.00000
     13     -14.3543      2.00000
     14     -12.9627      2.00000
     15     -12.8961      2.00000
     16     -12.8961      2.00000
     17      -1.0536      2.00000
     18      -1.0536      2.00000
     19      -1.0425      2.00000
     20       1.4086      2.00000
     21       1.4086      2.00000
     22       1.4935      2.00000
     23       1.4935      2.00000
     24       1.5999      2.00000
     25       1.5999      2.00000
     26       2.5736      2.00000
     27       2.8219      2.00000
     28       2.8219      2.00000
     29       7.9970      0.00000
     30      12.2046      0.00000
     31      12.3149      0.00000
     32      12.3149      0.00000
     33      12.9227      0.00000
     34      13.2007      0.00000
     35      13.2007      0.00000
     36      15.9297      0.00000
     37      15.9297      0.00000
     38      16.0449      0.00000
     39      17.9502      0.00000
     40      18.8882      0.00000
     41      18.8882      0.00000
     42      21.4407      0.00000
     43      21.4407      0.00000
     44      21.8302      0.00000
     45      21.8302      0.00000
     46      22.1041      0.00000
     47      22.1041      0.00000
     48      23.5068      0.00000
     49      23.6642      0.00000
     50      24.5579      0.00000
     51      27.5350      0.00000
     52      27.5350      0.00000
     53      28.1549      0.00000
     54      28.4927      0.00000
     55      28.4986      0.00000
     56      28.4986      0.00000
     57      29.3509      0.00000
     58      30.0117      0.00000
     59      30.0117      0.00000
     60      31.9239      0.00000
     61      31.9239      0.00000
     62      33.6724      0.00000
     63      33.6724      0.00000
     64      33.8249      0.00000
     65      33.8249      0.00000
     66      37.8887      0.00000
     67      38.4161      0.00000
     68      38.4161      0.00000
     69      38.9156      0.00000
     70      38.9156      0.00000
     71      39.4975      0.00000
     72      39.4975      0.00000
     73      40.3453      0.00000
     74      40.4031      0.00000
     75      40.4031      0.00000
     76      41.0396      0.00000
     77      41.0396      0.00000
     78      41.4596      0.00000
     79      41.9771      0.00000
     80      42.6809      0.00000
     81      42.6809      0.00000
     82      42.8553      0.00000
     83      43.5340      0.00000
     84      43.5341      0.00000
     85      43.9984      0.00000
     86      43.9984      0.00000
     87      45.5717      0.00000
     88      45.5717      0.00000
     89      46.1841      0.00000
     90      46.1841      0.00000
     91      47.2310      0.00000
     92      47.2310      0.00000
     93      50.3453      0.00000
     94      51.4405      0.00000
     95      51.4405      0.00000
     96      51.6464      0.00000

 k-point     3 :       0.2500    0.0000    0.0000
  band No.  band energies     occupation
      1     -36.2634      2.00000
      2     -36.2634      2.00000
      3     -36.2607      2.00000
      4     -36.2332      2.00000
      5     -36.2332      2.00000
      6     -36.2280      2.00000
      7     -36.2280      2.00000
      8     -36.2227      2.00000
      9     -36.2227      2.00000
     10     -36.2102      2.00000
     11     -36.2028      2.00000
     12     -36.2028      2.00000
     13     -14.1930      2.00000
     14     -13.1265      2.00000
     15     -12.8738      2.00000
     16     -12.8738      2.00000
     17      -0.8335      2.00000
     18      -0.8335      2.00000
     19      -0.7814      2.00000
     20       1.0180      2.00000
     21       1.0180      2.00000
     22       1.3434      2.00000
     23       1.3434      2.00000
     24       1.7235      2.00000
     25       1.7235      2.00000
     26       1.8603      2.00000
     27       2.6548      2.00000
     28       2.6548      2.00000
     29       8.8480      0.00000
     30      12.5892      0.00000
     31      12.6383      0.00000
     32      12.9455      0.00000
     33      12.9455      0.00000
     34      13.8433      0.00000
     35      13.8433      0.00000
     36      15.6720      0.00000
     37      15.6720      0.00000
     38      16.3497      0.00000
     39      16.5602      0.00000
     40      19.2677      0.00000
     41      19.2677      0.00000
     42      20.2925      0.00000
     43      20.2925      0.00000
     44      21.4999      0.00000
     45      21.4999      0.00000
     46      21.8262      0.00000
     47      22.6013      0.00000
     48      22.6013      0.00000
     49      24.9165      0.00000
     50      25.8421      0.00000
     51      28.0975      0.00000
     52      28.0975      0.00000
     53      28.3757      0.00000
     54      28.9366      0.00000
     55      28.9366      0.00000
     56      29.2480      0.00000
     57      29.2539      0.00000
     58      29.2539      0.00000
     59      29.4464      0.00000
     60      30.7091      0.00000
     61      30.7091      0.00000
     62      33.1620      0.00000
     63      33.1620      0.00000
     64      34.0994      0.00000
     65      34.0994      0.00000
     66      37.8020      0.00000
     67      37.8020      0.00000
     68      38.2016      0.00000
     69      38.5453      0.00000
     70      38.5453      0.00000
     71      39.2645      0.00000
     72      39.2645      0.00000
     73      39.3151      0.00000
     74      39.6497      0.00000
     75      40.3934      0.00000
     76      40.5015      0.00000
     77      40.5015      0.00000
     78      41.4364      0.00000
     79      41.4364      0.00000
     80      42.3943      0.00000
     81      42.3943      0.00000
     82      43.2838      0.00000
     83      43.2838      0.00000
     84      44.5543      0.00000
     85      45.4155      0.00000
     86      45.4155      0.00000
     87      46.2356      0.00000
     88      46.2356      0.00000
     89      47.2934      0.00000
     90      47.2934      0.00000
     91      49.0555      0.00000
     92      49.0555      0.00000
     93      50.2363      0.00000
     94      50.2363      0.00000
     95      50.9324      0.00000
     96      50.9324      0.00000

 k-point     4 :       0.3750    0.0000    0.0000
  band No.  band energies     occupation
      1     -36.2564      2.00000
      2     -36.2564      2.00000
      3     -36.2499      2.00000
      4     -36.2402      2.00000
      5     -36.2402      2.00000
      6     -36.2284      2.00000
      7     -36.2284      2.00000
      8     -36.2225      2.00000
      9     -36.2183      2.00000
     10     -36.2183      2.00000
     11     -36.2074      2.00000
     12     -36.2074      2.00000
     13     -13.9501      2.00000
     14     -13.3722      2.00000
     15     -12.8512      2.00000
     16     -12.8512      2.00000
     17      -0.4803      2.00000
     18      -0.4803      2.00000
     19      -0.3374      2.00000
     20       0.5053      2.00000
     21       0.5053      2.00000
     22       1.0413      2.00000
     23       1.1987      2.00000
     24       1.1987      2.00000
     25       1.9165      2.00000
     26       1.9165      2.00000
     27       2.4185      2.00000
     28       2.4185      2.00000
     29       9.9026      0.00000
     30      11.9531      0.00000
     31      13.2277      0.00000
     32      13.7672      0.00000
     33      13.7672      0.00000
     34      14.6770      0.00000
     35      14.6770      0.00000
     36      15.2220      0.00000
     37      15.2220      0.00000
     38      15.2374      0.00000
     39      17.1801      0.00000
     40      19.0762      0.00000
     41      19.0762      0.00000
     42      19.8111      0.00000
     43      19.8111      0.00000
     44      20.0787      0.00000
     45      21.0086      0.00000
     46      21.0086      0.00000
     47      23.5120      0.00000
     48      23.5120      0.00000
     49      25.5060      0.00000
     50      26.8512      0.00000
     51      26.8512      0.00000
     52      27.2942      0.00000
     53      28.4776      0.00000
     54      29.0442      0.00000
     55      29.0442      0.00000
     56      29.1822      0.00000
     57      29.1822      0.00000
     58      30.1444      0.00000
     59      30.4375      0.00000
     60      31.5116      0.00000
     61      31.5116      0.00000
     62      31.8684      0.00000
     63      31.8684      0.00000
     64      34.4650      0.00000
     65      34.4650      0.00000
     66      34.6835      0.00000
     67      37.6535      0.00000
     68      37.6535      0.00000
     69      37.8787      0.00000
     70      37.8787      0.00000
     71      38.5331      0.00000
     72      39.2060      0.00000
     73      39.6586      0.00000
     74      39.6586      0.00000
     75      39.8352      0.00000
     76      39.8352      0.00000
     77      41.3690      0.00000
     78      41.3690      0.00000
     79      42.0404      0.00000
     80      42.5693      0.00000
     81      42.5693      0.00000
     82      42.6707      0.00000
     83      42.6707      0.00000
     84      45.2247      0.00000
     85      45.2247      0.00000
     86      46.7328      0.00000
     87      48.0106      0.00000
     88      48.3316      0.00000
     89      48.3316      0.00000
     90      49.1034      0.00000
     91      49.1034      0.00000
     92      49.2735      0.00000
     93      49.2735      0.00000
     94      49.8243      0.00000
     95      49.8243      0.00000
     96      51.4843      0.00000

 k-point     5 :       0.5000    0.0000    0.0000
  band No.  band energies     occupation
      1     -36.2479      2.00000
      2     -36.2479      2.00000
      3     -36.2479      2.00000
      4     -36.2479      2.00000
      5     -36.2367      2.00000
      6     -36.2367      2.00000
      7     -36.2286      2.00000
      8     -36.2286      2.00000
      9     -36.2132      2.00000
     10     -36.2132      2.00000
     11     -36.2132      2.00000
     12     -36.2132      2.00000
     13     -13.6618      2.00000
     14     -13.6618      2.00000
     15     -12.8418      2.00000
     16     -12.8418      2.00000
     17      -0.0189      2.00000
     18      -0.0189      2.00000
     19      -0.0189      2.00000
     20      -0.0189      2.00000
     21       0.2817      2.00000
     22       0.2817      2.00000
     23       1.1401      2.00000
     24       1.1401      2.00000
     25       2.1585      2.00000
     26       2.1585      2.00000
     27       2.1585      2.00000
     28       2.1585      2.00000
     29      10.9841      0.00000
     30      10.9841      0.00000
     31      14.1147      0.00000
     32      14.1147      0.00000
     33      14.5717      0.00000
     34      14.5717      0.00000
     35      14.5717      0.00000
     36      14.5717      0.00000
     37      15.1537      0.00000
     38      15.1537      0.00000
     39      18.4646      0.00000
     40      18.4646      0.00000
     41      18.4774      0.00000
     42      18.4774      0.00000
     43      20.4210      0.00000
     44      20.4210      0.00000
     45      20.4210      0.00000
     46      20.4210      0.00000
     47      24.9179      0.00000
     48      24.9179      0.00000
     49      24.9179      0.00000
     50      24.9179      0.00000
     51      26.3103      0.00000
     52      26.3103      0.00000
     53      29.2612      0.00000
     54      29.2612      0.00000
     55      30.3483      0.00000
     56      30.3483      0.00000
     57      30.3483      0.00000
     58      30.3483      0.00000
     59      30.6932      0.00000
     60      30.6932      0.00000
     61      31.4370      0.00000
     62      31.4370      0.00000
     63      31.8558      0.00000
     64      31.8558      0.00000
     65      34.6693      0.00000
     66      34.6693      0.00000
     67      37.2595      0.00000
     68      37.2595      0.00000
     69      38.4462      0.00000
     70      38.4462      0.00000
     71      38.6798      0.00000
     72      38.6798      0.00000
     73      38.6798      0.00000
     74      38.6798      0.00000
     75      40.5156      0.00000
     76      40.5156      0.00000
     77      40.5156      0.00000
     78      40.5156      0.00000
     79      42.4389      0.00000
     80      42.4389      0.00000
     81      43.8668      0.00000
     82      43.8668      0.00000
     83      43.8668      0.00000
     84      43.8668      0.00000
     85      44.8553      0.00000
     86      44.8553      0.00000
     87      48.6434      0.00000
     88      48.6434      0.00000
     89      49.0277      0.00000
     90      49.0277      0.00000
     91      49.0277      0.00000
     92      49.0277      0.00000
     93      49.3299      0.00000
     94      49.3299      0.00000
     95      52.9739      0.00000
     96      52.9740      0.00000

 k-point     6 :       0.1250    0.1250    0.0000
  band No.  band energies     occupation
      1     -36.2668      2.00000
      2     -36.2662      2.00000
      3     -36.2662      2.00000
      4     -36.2325      2.00000
      5     -36.2274      2.00000
      6     -36.2274      2.00000
      7     -36.2258      2.00000
      8     -36.2258      2.00000
      9     -36.2252      2.00000
     10     -36.2068      2.00000
     11     -36.2012      2.00000
     12     -36.1994      2.00000
     13     -14.2991      2.00000
     14     -12.9508      2.00000
     15     -12.9508      2.00000
     16     -12.8892      2.00000
     17      -0.9834      2.00000
     18      -0.9834      2.00000
     19      -0.9796      2.00000
     20       1.1131      2.00000
     21       1.4537      2.00000
     22       1.4537      2.00000
     23       1.5473      2.00000
     24       1.5473      2.00000
     25       1.6091      2.00000
     26       2.2463      2.00000
     27       2.7568      2.00000
     28       2.8361      2.00000
     29       8.2970      0.00000
     30      12.4357      0.00000
     31      12.4357      0.00000
     32      12.4583      0.00000
     33      13.1411      0.00000
     34      13.1411      0.00000
     35      13.4774      0.00000
     36      15.8538      0.00000
     37      15.9665      0.00000
     38      15.9665      0.00000
     39      17.4459      0.00000
     40      18.9858      0.00000
     41      19.0125      0.00000
     42      21.3779      0.00000
     43      21.3779      0.00000
     44      21.5481      0.00000
     45      21.6767      0.00000
     46      21.9880      0.00000
     47      21.9880      0.00000
     48      23.3192      0.00000
     49      24.0978      0.00000
     50      24.3815      0.00000
     51      27.7468      0.00000
     52      27.7851      0.00000
     53      28.7052      0.00000
     54      28.7052      0.00000
     55      28.8018      0.00000
     56      28.8461      0.00000
     57      29.4712      0.00000
     58      29.4712      0.00000
     59      30.1829      0.00000
     60      31.2662      0.00000
     61      32.3054      0.00000
     62      32.3054      0.00000
     63      33.0075      0.00000
     64      33.7316      0.00000
     65      33.7316      0.00000
     66      38.0875      0.00000
     67      38.0875      0.00000
     68      38.3079      0.00000
     69      38.3079      0.00000
     70      39.2962      0.00000
     71      39.3284      0.00000
     72      39.6502      0.00000
     73      39.9268      0.00000
     74      39.9268      0.00000
     75      40.8888      0.00000
     76      41.0488      0.00000
     77      41.2869      0.00000
     78      42.3254      0.00000
     79      42.3383      0.00000
     80      42.3383      0.00000
     81      42.7640      0.00000
     82      42.7640      0.00000
     83      43.1425      0.00000
     84      43.2906      0.00000
     85      44.7731      0.00000
     86      45.1459      0.00000
     87      45.1459      0.00000
     88      45.2776      0.00000
     89      45.2776      0.00000
     90      45.9622      0.00000
     91      47.9070      0.00000
     92      50.0502      0.00000
     93      50.0503      0.00000
     94      50.8840      0.00000
     95      51.0351      0.00000
     96      51.8246      0.00000

 k-point     7 :       0.2500    0.1250    0.0000
  band No.  band energies     occupation
      1     -36.2629      2.00000
      2     -36.2619      2.00000
      3     -36.2607      2.00000
      4     -36.2382      2.00000
      5     -36.2321      2.00000
      6     -36.2260      2.00000
      7     -36.2242      2.00000
      8     -36.2240      2.00000
      9     -36.2222      2.00000
     10     -36.2155      2.00000
     11     -36.2041      2.00000
     12     -36.2010      2.00000
     13     -14.1413      2.00000
     14     -13.1075      2.00000
     15     -12.9209      2.00000
     16     -12.8734      2.00000
     17      -0.8109      2.00000
     18      -0.7642      2.00000
     19      -0.7613      2.00000
     20       0.6792      2.00000
     21       1.0695      2.00000
     22       1.4302      2.00000
     23       1.5776      2.00000
     24       1.5852      2.00000
     25       1.5908      2.00000
     26       1.6994      2.00000
     27       2.5780      2.00000
     28       2.7117      2.00000
     29       9.0567      0.00000
     30      12.7964      0.00000
     31      12.8042      0.00000
     32      12.9137      0.00000
     33      13.0441      0.00000
     34      13.7194      0.00000
     35      14.1474      0.00000
     36      15.6181      0.00000
     37      15.7328      0.00000
     38      16.2950      0.00000
     39      16.3674      0.00000
     40      19.2337      0.00000
     41      19.3965      0.00000
     42      20.3551      0.00000
     43      20.5088      0.00000
     44      21.1736      0.00000
     45      21.6598      0.00000
     46      21.9712      0.00000
     47      22.1503      0.00000
     48      22.4889      0.00000
     49      24.3683      0.00000
     50      25.9940      0.00000
     51      28.2397      0.00000
     52      28.2435      0.00000
     53      28.2740      0.00000
     54      28.6026      0.00000
     55      29.0453      0.00000
     56      29.3726      0.00000
     57      29.5254      0.00000
     58      29.7684      0.00000
     59      29.9816      0.00000
     60      30.7895      0.00000
     61      31.0398      0.00000
     62      32.5363      0.00000
     63      32.9082      0.00000
     64      33.0227      0.00000
     65      33.8601      0.00000
     66      36.9174      0.00000
     67      36.9904      0.00000
     68      37.3693      0.00000
     69      38.2368      0.00000
     70      38.5036      0.00000
     71      38.5809      0.00000
     72      39.5847      0.00000
     73      40.0519      0.00000
     74      40.2932      0.00000
     75      40.4278      0.00000
     76      40.9583      0.00000
     77      41.0117      0.00000
     78      41.0633      0.00000
     79      41.9170      0.00000
     80      42.3873      0.00000
     81      43.6828      0.00000
     82      44.5307      0.00000
     83      44.5947      0.00000
     84      44.6596      0.00000
[...]
     73      36.9431      0.00000
     74      37.6999      0.00000
     75      37.6999      0.00000
     76      37.6999      0.00000
     77      39.6748      0.00000
     78      44.3683      0.00000
     79      44.3683      0.00000
     80      44.3683      0.00000
     81      47.6677      0.00000
     82      47.6677      0.00000
     83      47.7558      0.00000
     84      47.7558      0.00000
     85      47.7558      0.00000
     86      48.6229      0.00000
     87      48.6229      0.00000
     88      48.6229      0.00000
     89      49.0885      0.00000
     90      49.0885      0.00000
     91      49.0885      0.00000
     92      49.5145      0.00000
     93      51.8372      0.00000
     94      51.8372      0.00000
     95      51.8372      0.00000
     96      53.8907      0.00000

 k-point    33 :       0.5000    0.3750    0.3750
  band No.  band energies     occupation
      1     -36.2789      2.00000
      2     -36.2789      2.00000
      3     -36.2760      2.00000
      4     -36.2760      2.00000
      5     -36.2133      2.00000
      6     -36.2133      2.00000
      7     -36.2090      2.00000
      8     -36.2090      2.00000
      9     -36.2082      2.00000
     10     -36.2082      2.00000
     11     -36.2080      2.00000
     12     -36.2080      2.00000
     13     -13.2036      2.00000
     14     -13.2036      2.00000
     15     -13.0791      2.00000
     16     -13.0791      2.00000
     17      -1.5117      2.00000
     18      -1.5117      2.00000
     19      -1.3814      2.00000
     20      -1.3814      2.00000
     21       1.8295      2.00000
     22       1.8295      2.00000
     23       2.1611      2.00000
     24       2.1611      2.00000
     25       2.1645      2.00000
     26       2.1645      2.00000
     27       2.2252      2.00000
     28       2.2252      2.00000
     29      10.9771      0.00000
     30      10.9771      0.00000
     31      11.3645      0.00000
     32      11.3645      0.00000
     33      15.3508      0.00000
     34      15.3508      0.00000
     35      15.4198      0.00000
     36      15.4198      0.00000
     37      18.1021      0.00000
     38      18.1021      0.00000
     39      18.9058      0.00000
     40      18.9058      0.00000
     41      19.4612      0.00000
     42      19.4612      0.00000
     43      19.5626      0.00000
     44      19.5626      0.00000
     45      24.1758      0.00000
     46      24.1758      0.00000
     47      24.5321      0.00000
     48      24.5321      0.00000
     49      24.7171      0.00000
     50      24.7171      0.00000
     51      25.0074      0.00000
     52      25.0074      0.00000
     53      25.4145      0.00000
     54      25.4145      0.00000
     55      26.0078      0.00000
     56      26.0078      0.00000
     57      31.9915      0.00000
     58      31.9915      0.00000
     59      32.5370      0.00000
     60      32.5370      0.00000
     61      33.0563      0.00000
     62      33.0563      0.00000
     63      33.1525      0.00000
     64      33.1525      0.00000
     65      33.2428      0.00000
     66      33.2428      0.00000
     67      34.1870      0.00000
     68      34.1870      0.00000
     69      35.1503      0.00000
     70      35.1503      0.00000
     71      36.5239      0.00000
     72      36.5239      0.00000
     73      36.5800      0.00000
     74      36.5800      0.00000
     75      37.4395      0.00000
     76      37.4395      0.00000
     77      41.8312      0.00000
     78      41.8312      0.00000
     79      45.8417      0.00000
     80      45.8417      0.00000
     81      47.2874      0.00000
     82      47.2874      0.00000
     83      47.9532      0.00000
     84      47.9532      0.00000
     85      48.1122      0.00000
     86      48.1122      0.00000
     87      48.3083      0.00000
     88      48.3083      0.00000
     89      49.5588      0.00000
     90      49.5588      0.00000
     91      50.3821      0.00000
     92      50.3822      0.00000
     93      52.3394      0.00000
     94      52.3394      0.00000
     95      52.9920      0.00000
     96      52.9923      0.00000

 k-point    34 :       0.5000    0.5000    0.3750
  band No.  band energies     occupation
      1     -36.2799      2.00000
      2     -36.2799      2.00000
      3     -36.2799      2.00000
      4     -36.2799      2.00000
      5     -36.2096      2.00000
      6     -36.2096      2.00000
      7     -36.2096      2.00000
      8     -36.2096      2.00000
      9     -36.2073      2.00000
     10     -36.2073      2.00000
     11     -36.2073      2.00000
     12     -36.2073      2.00000
     13     -13.1298      2.00000
     14     -13.1298      2.00000
     15     -13.1298      2.00000
     16     -13.1298      2.00000
     17      -1.5583      2.00000
     18      -1.5583      2.00000
     19      -1.5583      2.00000
     20      -1.5583      2.00000
     21       2.0868      2.00000
     22       2.0868      2.00000
     23       2.0868      2.00000
     24       2.0868      2.00000
     25       2.2371      2.00000
     26       2.2371      2.00000
     27       2.2371      2.00000
     28       2.2371      2.00000
     29      11.0090      0.00000
     30      11.0090      0.00000
     31      11.0090      0.00000
     32      11.0090      0.00000
     33      15.4562      0.00000
     34      15.4562      0.00000
     35      15.4562      0.00000
     36      15.4562      0.00000
     37      18.8256      0.00000
     38      18.8256      0.00000
     39      18.8256      0.00000
     40      18.8256      0.00000
     41      19.4124      0.00000
     42      19.4124      0.00000
     43      19.4124      0.00000
     44      19.4124      0.00000
     45      24.4878      0.00000
     46      24.4878      0.00000
     47      24.4878      0.00000
     48      24.4878      0.00000
     49      25.1075      0.00000
     50      25.1075      0.00000
     51      25.1075      0.00000
     52      25.1075      0.00000
     53      25.2263      0.00000
     54      25.2263      0.00000
     55      25.2263      0.00000
     56      25.2263      0.00000
     57      31.9192      0.00000
     58      31.9192      0.00000
     59      31.9192      0.00000
     60      31.9192      0.00000
     61      33.3790      0.00000
     62      33.3790      0.00000
     63      33.3790      0.00000
     64      33.3790      0.00000
     65      33.8259      0.00000
     66      33.8259      0.00000
     67      33.8259      0.00000
     68      33.8259      0.00000
     69      35.3899      0.00000
     70      35.3899      0.00000
     71      35.3899      0.00000
     72      35.3899      0.00000
     73      36.6803      0.00000
     74      36.6803      0.00000
     75      36.6803      0.00000
     76      36.6803      0.00000
     77      43.9587      0.00000
     78      43.9587      0.00000
     79      43.9587      0.00000
     80      43.9587      0.00000
     81      48.1574      0.00000
     82      48.1574      0.00000
     83      48.1574      0.00000
     84      48.1574      0.00000
     85      48.9218      0.00000
     86      48.9218      0.00000
     87      48.9218      0.00000
     88      48.9218      0.00000
     89      49.6727      0.00000
     90      49.6727      0.00000
     91      49.6727      0.00000
     92      49.6727      0.00000
     93      53.5259      0.00000
     94      53.5277      0.00000
     95      53.5291      0.00000
     96      53.5294      0.00000

 k-point    35 :       0.5000    0.5000    0.5000
  band No.  band energies     occupation
      1     -36.2828      2.00000
      2     -36.2828      2.00000
      3     -36.2828      2.00000
      4     -36.2828      2.00000
      5     -36.2074      2.00000
      6     -36.2074      2.00000
      7     -36.2074      2.00000
      8     -36.2074      2.00000
      9     -36.2074      2.00000
     10     -36.2074      2.00000
     11     -36.2074      2.00000
     12     -36.2074      2.00000
     13     -13.1175      2.00000
     14     -13.1175      2.00000
     15     -13.1175      2.00000
     16     -13.1175      2.00000
     17      -1.6739      2.00000
     18      -1.6739      2.00000
     19      -1.6739      2.00000
     20      -1.6739      2.00000
     21       2.2369      2.00000
     22       2.2369      2.00000
     23       2.2369      2.00000
     24       2.2369      2.00000
     25       2.2369      2.00000
     26       2.2369      2.00000
     27       2.2369      2.00000
     28       2.2369      2.00000
     29      10.8252      0.00000
     30      10.8252      0.00000
     31      10.8252      0.00000
     32      10.8252      0.00000
     33      15.5285      0.00000
     34      15.5285      0.00000
     35      15.5285      0.00000
     36      15.5285      0.00000
     37      19.2904      0.00000
     38      19.2904      0.00000
     39      19.2904      0.00000
     40      19.2904      0.00000
     41      19.2904      0.00000
     42      19.2904      0.00000
     43      19.2904      0.00000
     44      19.2904      0.00000
     45      23.8617      0.00000
     46      23.8617      0.00000
     47      23.8617      0.00000
     48      23.8617      0.00000
     49      25.4555      0.00000
     50      25.4555      0.00000
     51      25.4555      0.00000
     52      25.4555      0.00000
     53      25.4555      0.00000
     54      25.4555      0.00000
     55      25.4555      0.00000
     56      25.4555      0.00000
     57      31.4373      0.00000
     58      31.4373      0.00000
     59      31.4373      0.00000
     60      31.4373      0.00000
     61      33.7617      0.00000
     62      33.7617      0.00000
     63      33.7617      0.00000
     64      33.7617      0.00000
     65      33.7617      0.00000
     66      33.7617      0.00000
     67      33.7617      0.00000
     68      33.7617      0.00000
     69      35.6528      0.00000
     70      35.6528      0.00000
     71      35.6528      0.00000
     72      35.6528      0.00000
     73      35.6528      0.00000
     74      35.6528      0.00000
     75      35.6528      0.00000
     76      35.6528      0.00000
     77      45.3637      0.00000
     78      45.3637      0.00000
     79      45.3637      0.00000
     80      45.3637      0.00000
     81      47.0646      0.00000
     82      47.0646      0.00000
     83      47.0646      0.00000
     84      47.0646      0.00000
     85      49.8573      0.00000
     86      49.8573      0.00000
     87      49.8573      0.00000
     88      49.8573      0.00000
     89      49.8573      0.00000
     90      49.8573      0.00000
     91      49.8573      0.00000
     92      49.8573      0.00000
     93      53.5070      0.00000
     94      53.5076      0.00000
     95      53.5079      0.00000
     96      53.5079      0.00000


--------------------------------------------------------------------------------------------------------


 soft charge-density along one line, spin component           1
         0         1         2         3         4         5         6         7         8         9
 total charge-density along one line

 pseudopotential strength for first ion, spin component:           1
-48.077  -0.000  -0.000   5.569   0.000  -0.000   0.000  -0.000
 -0.000 -48.077   0.000   0.000   5.569  -0.000   0.000  -0.000
 -0.000   0.000 -48.077  -0.000  -0.000   5.569  -0.000   0.000
  5.569   0.000  -0.000   4.838   0.000   0.000   0.000  -0.000
  0.000   5.569  -0.000   0.000   4.838   0.000   0.000  -0.000
 -0.000  -0.000   5.569   0.000   0.000   4.838   0.000  -0.000
  0.000   0.000  -0.000   0.000   0.000   0.000   2.963 -10.842
 -0.000  -0.000   0.000  -0.000  -0.000  -0.000 -10.842  45.125
 -0.000   0.000  -0.000   0.000   0.000   0.000   0.000  -0.000
 -0.000  -0.000   0.000   0.000   0.000   0.000   0.000  -0.000
  0.000  -0.000  -0.000  -0.000   0.000   0.000   0.000  -0.000
  0.000   0.000  -0.000   0.000  -0.000   0.000  -0.000   0.000
  0.000  -0.000   0.000  -0.000   0.000  -0.000  -0.000   0.000
 total augmentation occupancy for first ion, spin component:           1
  2.002   0.000   0.000  -0.005   0.000  -0.000  -0.000  -0.000  -0.000   0.000  -0.000   0.000   0.000
  0.000   2.002  -0.000  -0.000  -0.005  -0.000   0.000   0.000   0.000   0.000  -0.000   0.000   0.000
  0.000   0.000   2.002  -0.000   0.000  -0.005   0.000   0.000   0.000   0.000  -0.000   0.000   0.000
 -0.005  -0.000  -0.000   0.075  -0.000  -0.000   0.000   0.000   0.000  -0.000   0.000   0.000  -0.000
 -0.000  -0.005  -0.000   0.000   0.075  -0.000   0.000   0.000   0.000   0.000   0.000   0.000  -0.000
 -0.000   0.000  -0.005  -0.000  -0.000   0.075  -0.000  -0.000   0.000   0.000   0.000   0.000  -0.000
  0.000   0.000   0.000  -0.000  -0.000  -0.000   0.846   0.016   0.000   0.000   0.000  -0.000  -0.000
  0.000   0.000  -0.000   0.000  -0.000  -0.000   0.016   0.000  -0.000  -0.000   0.000   0.000  -0.000
  0.000   0.000   0.000  -0.000   0.000   0.000   0.000   0.000   0.013   0.000   0.000   0.000   0.000
  0.000   0.000   0.000  -0.000   0.000   0.000   0.000  -0.000  -0.000   0.013  -0.000   0.000   0.000
  0.000   0.000   0.000   0.000   0.000   0.000   0.000   0.000  -0.000  -0.000   0.051   0.000   0.000
  0.000   0.000  -0.000   0.000   0.000  -0.000  -0.000   0.000  -0.000   0.000  -0.000   0.013   0.000
  0.000  -0.000  -0.000  -0.000  -0.000  -0.000   0.000  -0.000   0.000   0.000   0.000   0.000   0.051


------------------------ aborting loop because EDIFF is reached ----------------------------------------


    FORLOC:  cpu time      0.0003: real time      0.0003
    FORNL :  cpu time      0.0072: real time      0.0072
    STRESS:  cpu time      0.0737: real time      0.0737
    FORCOR:  cpu time      0.0076: real time      0.0076
    OFIELD:  cpu time      0.0000: real time      0.0000
    FORVDW:  cpu time      4.7966: real time      4.7970

  FORCE on cell =-STRESS in cart. coord.  units (eV):
  Direction    XX          YY          ZZ          XY          YZ          ZX
  --------------------------------------------------------------------------------------
  Alpha Z   276.47733   276.47733   276.47733
  Ewald   -1280.82071 -1280.82071 -1280.82071     0.00000     0.00000    -0.00000
  Hartree   409.33558   409.33558   409.33558    -0.00000    -0.00000    -0.00000
  E(xc)    -309.36460  -309.36460  -309.36460     0.00000     0.00000    -0.00000
  Local     208.20632   208.20632   208.20632     0.00000    -0.00000     0.00000
  n-local  -349.50549  -350.94047  -350.74074     0.17402     0.16062     0.09806
  augment   130.37168   130.37168   130.37168    -0.00000    -0.00000    -0.00000
  Kinetic   912.76725   921.43753   924.18033    -2.95684    -2.89431    -1.78004
  Fock        0.00000     0.00000     0.00000     0.00000     0.00000     0.00000
  vdW        -3.26375    -3.26375    -3.26375    -0.00000    -0.00000    -0.00000
  -------------------------------------------------------------------------------------
  Total       0.00798     0.00798     0.00798    -0.00000    -0.00000     0.00000
  in kB       0.17012     0.17012     0.17012    -0.00000    -0.00000     0.00000
  external pressure =        0.17 kB  Pullay stress =        0.00 kB


 VOLUME and BASIS-vectors are now :
 -----------------------------------------------------------------------------
  energy-cutoff  :      600.00
  volume of cell :       75.18
      direct lattice vectors                 reciprocal lattice vectors
     4.220492327 -0.000000000  0.000000000     0.236939182  0.000000000  0.000000000
     0.000000000  4.220492327 -0.000000000     0.000000000  0.236939182  0.000000000
    -0.000000000  0.000000000  4.220492327     0.000000000  0.000000000  0.236939182

  length of vectors
     4.220492327  4.220492327  4.220492327     0.236939182  0.236939182  0.236939182


 FORCES acting on ions:
    Electron-Ion                     Ewald-Force                    Non-Local-Force
 -----------------------------------------------------------------------------------------------
   -.290E-13 -.289E-13 -.329E-13   -.293E-14 -.451E-14 -.182E-14   -.517E-25 0.465E-24 0.482E-24
   -.284E-13 0.406E-12 0.393E-12   -.286E-14 0.624E-14 0.472E-14   0.336E-24 0.000E+00 0.229E-24
   0.400E-12 -.346E-13 0.293E-11   -.863E-14 -.499E-14 0.465E-14   0.439E-24 0.000E+00 0.376E-24
   0.403E-12 0.974E-12 -.345E-12   -.856E-14 0.576E-14 -.414E-14   -.414E-24 -.620E-24 -.100E-24
   0.175E-12 -.281E-13 -.155E-11   0.426E-14 -.377E-14 -.184E-14   0.103E-24 0.000E+00 -.851E-25
   0.169E-12 0.130E-12 0.737E-12   0.420E-14 0.291E-14 0.234E-14   0.103E-24 0.000E+00 0.980E-25
   -.269E-13 -.217E-13 0.165E-12   0.686E-14 -.400E-14 0.235E-14   0.103E-24 0.000E+00 -.994E-25
   -.271E-13 0.179E-12 -.176E-13   0.680E-14 0.268E-14 -.496E-14   0.103E-24 0.000E+00 -.117E-24
 -----------------------------------------------------------------------------------------------
   0.105E-11 0.160E-11 0.233E-11   -.874E-15 0.317E-15 0.130E-14   0.724E-24 -.155E-24 0.784E-24


 POSITION                                       TOTAL-FORCE (eV/Angst)
 -----------------------------------------------------------------------------------
      0.00000      0.00000      0.00000        -0.000000      0.000000     -0.000000
      0.00000      2.11025      2.11025        -0.000000      0.000000      0.000000
      2.11025      0.00000      2.11025        -0.000000      0.000000     -0.000000
      2.11025      2.11025      0.00000         0.000000     -0.000000      0.000000
      2.11025      0.00000      0.00000        -0.000000      0.000000     -0.000000
      2.11025      2.11025      2.11025         0.000000     -0.000000      0.000000
      0.00000      0.00000      2.11025         0.000000     -0.000000     -0.000000
      0.00000      2.11025      0.00000        -0.000000      0.000000      0.000000
 -----------------------------------------------------------------------------------
    total drift:                                0.000000      0.000000      0.000000


--------------------------------------------------------------------------------------------------------



  FREE ENERGIE OF THE ION-ELECTRON SYSTEM (eV)
  ---------------------------------------------------
  free  energy   TOTEN  =       -47.68604272 eV

  energy  without entropy=      -47.68604272  energy(sigma->0) =      -47.68604272



--------------------------------------------------------------------------------------------------------


    POTLOK:  cpu time      0.3397: real time      0.3398


--------------------------------------------------------------------------------------------------------




--------------------------------------------------------------------------------------------------------



 reached required accuracy - stopping structural energy minimisation
     LOOP+:  cpu time     60.3356: real time     60.4695
    4ORBIT:  cpu time      0.0000: real time      0.0000

 total amount of memory used by VASP MPI-rank0    37050. kBytes
=======================================================================

   base      :      30000. kBytes
   nonl-proj :       4978. kBytes
   fftplans  :        364. kBytes
   grid      :        402. kBytes
   one-center:         16. kBytes
   wavefun   :       1290. kBytes



 General timing and accounting informations for this job:
 ========================================================

                  Total CPU time used (sec):       70.864
                            User time (sec):       69.913
                          System time (sec):        0.952
                         Elapsed time (sec):       75.611

                   Maximum memory used (kb):      126652.
                   Average memory used (kb):          N/A

                          Minor page faults:        29887
                          Major page faults:            0
                 Voluntary context switches:         9268
