 vasp.6.3.0 20Jan22 (build Apr  1 2022 16:44:48) complex
 executed on        HPECrayEX_GCC date 2022.09.25  02:51:56
 running  384 mpi-ranks, with    1 threads/rank
 distrk:  each k-point on  192 cores,    2 groups
 distr:  one band on NCORE=   4 cores,   48 groups


--------------------------------------------------------------------------------------------------------


 INCAR:
   SYSTEM = MgO-rocksalt
   ISMEAR = 0
   SIGMA = 0.05
   EDIFF = 1E-7
   ALGO = ALL
   ISTART = 0
   IBRION = 2
   NSW = 1000
   ISYM = 2
   ISIF = 3
   EDIFFG = -0.005
   LHFCALC = .TRUE.
   GGA = B5
   AEXX = 0.2
   AGGAX = 0.72
   AGGAC = 0.81
   ALDAC = 0.19
   IVDW = 1
   VDW_S6 = 1.05
   VDW_C6 = 0.63 0.70
   VDW_R0 = 1.243 1.342
   ENCUT = 600
   PREC = Normal
   LASPH = .TRUE.
   LREAL = .FALSE.
   ISPIN = 1
   NELM = 200
   NELMIN = 8
   NCORE = 4
   KPAR = 2
   LWAVE = .FALSE.
   LCHARG = .FALSE.

 POTCAR:    PAW_PBE Mg_pv 13Apr2007
 POTCAR:    PAW_PBE O 08Apr2002
 -----------------------------------------------------------------------------
|                                                                             |
|           W    W    AA    RRRRR   N    N  II  N    N   GGGG   !!!           |
|           W    W   A  A   R    R  NN   N  II  NN   N  G    G  !!!           |
|           W    W  A    A  R    R  N N  N  II  N N  N  G       !!!           |
|           W WW W  AAAAAA  RRRRR   N  N N  II  N  N N  G  GGG   !            |
|           WW  WW  A    A  R   R   N   NN  II  N   NN  G    G                |
|           W    W  A    A  R    R  N    N  II  N    N   GGGG   !!!           |
|                                                                             |
|     You have selected ISYM=2 for a HF type calculation. This will           |
|     symmetrize the charge density but not the exchange potential. I         |
|     suggest to use ISYM=3 instead. This uses symmetry to obtain the         |
|     orbitals at all k-points in the Brillouin zone, but does not apply      |
|     symmetry to the Hartree potential directly. The resultant charge        |
|     might have lower symmetry than the crystal but, at least, Hartree       |
|     and exchange are fully compatible.                                      |
|                                                                             |
 -----------------------------------------------------------------------------

 POTCAR:    PAW_PBE Mg_pv 13Apr2007
   SHA256 =  f474ac0dd33840b9ae76c01d57fea79fdf77cdfbb07d5ade72c65f83c709b62b Mg_pv/POTCAR
   COPYR  = (c) Copyright 13Apr2007 Georg Kresse
   COPYR  = This file is part of the software VASP. Any use, copying, and all other rights are regul
   COPYR  = If you do not have a valid VASP license, you may not use, copy or distribute this file.
   VRHFIN =Mg: p6s2
   LEXCH  = PE
   EATOM  =  1056.7344 eV,   77.6678 Ry

   TITEL  = PAW_PBE Mg_pv 13Apr2007
   LULTRA =        F    use ultrasoft PP ?
   IUNSCR =        1    unscreen: 0-lin 1-nonlin 2-no
   RPACOR =    1.500    partial core radius
   POMASS =   24.305; ZVAL   =    8.000    mass and valenz
   RCORE  =    2.000    outmost cutoff radius
   RWIGS  =    2.000; RWIGS  =    1.058    wigner-seitz radius (au A)
   ENMAX  =  403.929; ENMIN  =  302.947 eV
   RCLOC  =    1.506    cutoff for local pot
   LCOR   =        T    correct aug charges
   LPAW   =        T    paw PP
   EAUG   =  758.780
   DEXC   =    0.000
   RMAX   =    2.045    core radius for proj-oper
   RAUG   =    1.300    factor for augmentation sphere
   RDEP   =    2.025    radius for radial grids
   RDEPT  =    1.557    core radius for aug-charge

   Atomic configuration
    5 entries
     n  l   j            E        occ.
     1  0  0.50     -1259.6230   2.0000
     2  0  0.50       -79.8442   2.0000
     2  1  1.50       -46.6121   6.0000
     3  0  0.50        -4.7055   2.0000
     3  2  1.50        -1.3606   0.0000
   Description
     l       E           TYP  RCUT    TYP  RCUT
     1    -46.6121073     23  1.600
     1      2.7211652     23  1.600
     0     -4.7054661     23  2.000
     0     61.2262170     23  2.000
     2     -1.3605826     23  2.000
  local pseudopotential read in
  partial core-charges read in
  partial kinetic energy density read in
  atomic valenz-charges read in
  non local Contribution for L=           1  read in
    real space projection operators read in
  non local Contribution for L=           1  read in
    real space projection operators read in
  non local Contribution for L=           0  read in
    real space projection operators read in
  non local Contribution for L=           0  read in
    real space projection operators read in
  non local Contribution for L=           2  read in
    real space projection operators read in
    PAW grid and wavefunctions read in

   number of l-projection  operators is LMAX  =           5
   number of lm-projection operators is LMMAX =          13

 POTCAR:    PAW_PBE O 08Apr2002
   SHA256 =  818f92134a0a090dccd8ba1447fa70422a3b330e708bb4f08108d8ae51209ddf O/POTCAR
   COPYR  = (c) Copyright 08Apr2002 Georg Kresse
   COPYR  = This file is part of the software VASP. Any use, copying, and all other rights are regul
   COPYR  = If you do not have a valid VASP license, you may not use, copy or distribute this file.
   VRHFIN =O: s2p4
   LEXCH  = PE
   EATOM  =   432.3788 eV,   31.7789 Ry

   TITEL  = PAW_PBE O 08Apr2002
   LULTRA =        F    use ultrasoft PP ?
   IUNSCR =        1    unscreen: 0-lin 1-nonlin 2-no
   RPACOR =    1.200    partial core radius
   POMASS =   16.000; ZVAL   =    6.000    mass and valenz
   RCORE  =    1.520    outmost cutoff radius
   RWIGS  =    1.550; RWIGS  =    0.820    wigner-seitz radius (au A)
   ENMAX  =  400.000; ENMIN  =  300.000 eV
   ICORE  =        2    local potential
   LCOR   =        T    correct aug charges
   LPAW   =        T    paw PP
   EAUG   =  605.392
   DEXC   =    0.000
   RMAX   =    1.553    core radius for proj-oper
   RAUG   =    1.300    factor for augmentation sphere
   RDEP   =    1.550    radius for radial grids
   RDEPT  =    1.329    core radius for aug-charge

   Atomic configuration
    4 entries
     n  l   j            E        occ.
     1  0  0.50      -514.6923   2.0000
     2  0  0.50       -23.9615   2.0000
     2  1  0.50        -9.0305   4.0000
     3  2  1.50        -9.5241   0.0000
   Description
     l       E           TYP  RCUT    TYP  RCUT
     0    -23.9615318     23  1.200
     0     -9.5240782     23  1.200
     1     -9.0304911     23  1.520
     1      8.1634956     23  1.520
     2     -9.5240782      7  1.500
  local pseudopotential read in
  partial core-charges read in
  partial kinetic energy density read in
  kinetic energy density of atom read in
  atomic valenz-charges read in
  non local Contribution for L=           0  read in
    real space projection operators read in
  non local Contribution for L=           0  read in
    real space projection operators read in
  non local Contribution for L=           1  read in
    real space projection operators read in
  non local Contribution for L=           1  read in
    real space projection operators read in
    PAW grid and wavefunctions read in

   number of l-projection  operators is LMAX  =           4
   number of lm-projection operators is LMMAX =           8

 -----------------------------------------------------------------------------
|                                                                             |
|               ----> ADVICE to this user running VASP <----                  |
|                                                                             |
|     You enforced a specific xc type in the INCAR file but a different       |
|     type was found in the POTCAR file.                                      |
|     I HOPE YOU KNOW WHAT YOU ARE DOING!                                     |
|                                                                             |
 -----------------------------------------------------------------------------

  PAW_PBE Mg_pv 13Apr2007               :
 energy of atom  1       EATOM=-1056.7344
 kinetic energy error for atom=    0.0221 (will be added to EATOM!!)
  PAW_PBE O 08Apr2002                   :
 energy of atom  2       EATOM= -432.3788
 kinetic energy error for atom=    0.0168 (will be added to EATOM!!)


 POSCAR: Mg4 O4
  positions in direct lattice
  velocities in cartesian coordinates
 exchange correlation table for  LEXCH =       12
   RHO(1)=    0.500       N(1)  =     2000
   RHO(2)=  100.500       N(2)  =     4000



--------------------------------------------------------------------------------------------------------


 ion  position               nearest neighbor table
   1  0.000  0.000  0.000-   5 2.10   7 2.10   8 2.10   7 2.10   8 2.10   5 2.10
   2  0.000  0.500  0.500-   6 2.10   7 2.10   8 2.10   8 2.10   7 2.10   6 2.10
   3  0.500  0.000  0.500-   5 2.10   6 2.10   7 2.10   5 2.10   6 2.10   7 2.10
   4  0.500  0.500  0.000-   5 2.10   6 2.10   8 2.10   6 2.10   5 2.10   8 2.10
   5  0.500  0.000  0.000-   1 2.10   3 2.10   4 2.10   3 2.10   4 2.10   1 2.10
   6  0.500  0.500  0.500-   2 2.10   3 2.10   4 2.10   4 2.10   3 2.10   2 2.10
   7  0.000  0.000  0.500-   1 2.10   2 2.10   3 2.10   1 2.10   2 2.10   3 2.10
   8  0.000  0.500  0.000-   1 2.10   2 2.10   4 2.10   2 2.10   1 2.10   4 2.10

  LATTYP: Found a simple cubic cell.
 ALAT       =     4.2024309975

  Lattice vectors:

 A1 = (   4.2024309975,   0.0000000000,  -0.0000000000)
 A2 = (  -0.0000000000,   4.2024309975,  -0.0000000000)
 A3 = (   0.0000000000,   0.0000000000,   4.2024309975)


Analysis of symmetry for initial positions (statically):
=====================================================================
 Subroutine PRICEL returns following result:

  LATTYP: Found a face centered cubic cell.
 ALAT       =     4.2024309975

  Lattice vectors:

 A1 = (   2.1012154987,  -2.1012154987,   0.0000000000)
 A2 = (   2.1012154987,   0.0000000000,   2.1012154987)
 A3 = (   0.0000000000,  -2.1012154987,   2.1012154987)

   4 primitive cells build up your supercell.


 Routine SETGRP: Setting up the symmetry group for a
 simple cubic supercell.


 Subroutine GETGRP returns: Found 48 space group operations
 (whereof 48 operations were pure point group operations)
 out of a pool of 48 trial point group operations.


The static configuration has the point symmetry O_h .


Analysis of symmetry for dynamics (positions and initial velocities):
=====================================================================
 Subroutine PRICEL returns following result:

  LATTYP: Found a face centered cubic cell.
 ALAT       =     4.2024309975

  Lattice vectors:

 A1 = (   2.1012154987,  -2.1012154987,   0.0000000000)
 A2 = (   2.1012154987,   0.0000000000,   2.1012154987)
 A3 = (   0.0000000000,  -2.1012154987,   2.1012154987)

   4 primitive cells build up your supercell.


 Routine SETGRP: Setting up the symmetry group for a
 simple cubic supercell.


 Subroutine GETGRP returns: Found 48 space group operations
 (whereof 48 operations were pure point group operations)
 out of a pool of 48 trial point group operations.


The dynamic configuration has the point symmetry O_h .


 Subroutine INISYM returns: Found 48 space group operations
 (whereof 48 operations are pure point group operations),
 and found     4 'primitive' translations


----------------------------------------------------------------------------------------

                                     Primitive cell

  volume of cell :      18.5542

  direct lattice vectors                    reciprocal lattice vectors
     2.101215499 -2.101215499  0.000000000     0.237957506 -0.237957506 -0.237957506
     2.101215499  0.000000000  2.101215499     0.237957506  0.237957506  0.237957506
     0.000000000 -2.101215499  2.101215499    -0.237957506 -0.237957506  0.237957506

  length of vectors
     2.971567456  2.971567456  2.971567456     0.412154491  0.412154491  0.412154491

  position of ions in fractional coordinates (direct lattice)
     0.000000000  0.000000000  0.000000000
     0.500000000  0.500000000  0.500000000

  ion indices of the primitive-cell ions
   primitive index   ion index
                 1           1
                 2           5

----------------------------------------------------------------------------------------



 KPOINTS: pymatgen v2020.8.13 with grid density =

Automatic generation of k-mesh.
 Grid dimensions read from file:
 generate k-points for:    8    8    8

 Generating k-lattice:

  Cartesian coordinates                     Fractional coordinates (reciprocal lattice)
     0.029744688  0.000000000 -0.000000000     0.125000000  0.000000000  0.000000000
    -0.000000000  0.029744688  0.000000000     0.000000000  0.125000000  0.000000000
     0.000000000  0.000000000  0.029744688     0.000000000  0.000000000  0.125000000

  Length of vectors
     0.029744688  0.029744688  0.029744688

  Shift w.r.t. Gamma in fractional coordinates (k-lattice)
     0.000000000  0.000000000  0.000000000


 Subroutine IBZKPT returns following result:
 ===========================================

 Found     35 irreducible k-points:

 Following reciprocal coordinates:
            Coordinates               Weight
  0.000000  0.000000  0.000000      1.000000
  0.125000  0.000000  0.000000      6.000000
  0.250000  0.000000  0.000000      6.000000
  0.375000  0.000000  0.000000      6.000000
  0.500000  0.000000  0.000000      3.000000
  0.125000  0.125000  0.000000     12.000000
  0.250000  0.125000  0.000000     24.000000
  0.375000  0.125000  0.000000     24.000000
  0.500000  0.125000  0.000000     12.000000
  0.250000  0.250000  0.000000     12.000000
  0.375000  0.250000  0.000000     24.000000
  0.500000  0.250000  0.000000     12.000000
  0.375000  0.375000  0.000000     12.000000
  0.500000  0.375000  0.000000     12.000000
  0.500000  0.500000  0.000000      3.000000
  0.125000  0.125000  0.125000      8.000000
  0.250000  0.125000  0.125000     24.000000
  0.375000  0.125000  0.125000     24.000000
  0.500000  0.125000  0.125000     12.000000
  0.250000  0.250000  0.125000     24.000000
  0.375000  0.250000  0.125000     48.000000
  0.500000  0.250000  0.125000     24.000000
  0.375000  0.375000  0.125000     24.000000
  0.500000  0.375000  0.125000     24.000000
  0.500000  0.500000  0.125000      6.000000
  0.250000  0.250000  0.250000      8.000000
  0.375000  0.250000  0.250000     24.000000
  0.500000  0.250000  0.250000     12.000000
  0.375000  0.375000  0.250000     24.000000
  0.500000  0.375000  0.250000     24.000000
  0.500000  0.500000  0.250000      6.000000
  0.375000  0.375000  0.375000      8.000000
  0.500000  0.375000  0.375000     12.000000
  0.500000  0.500000  0.375000      6.000000
  0.500000  0.500000  0.500000      1.000000

 Following cartesian coordinates:
            Coordinates               Weight
  0.000000  0.000000  0.000000      1.000000
  0.029745  0.000000  0.000000      6.000000
  0.059489  0.000000  0.000000      6.000000
  0.089234  0.000000  0.000000      6.000000
  0.118979  0.000000  0.000000      3.000000
  0.029745  0.029745  0.000000     12.000000
  0.059489  0.029745  0.000000     24.000000
  0.089234  0.029745  0.000000     24.000000
  0.118979  0.029745  0.000000     12.000000
  0.059489  0.059489  0.000000     12.000000
  0.089234  0.059489  0.000000     24.000000
  0.118979  0.059489  0.000000     12.000000
  0.089234  0.089234  0.000000     12.000000
  0.118979  0.089234  0.000000     12.000000
  0.118979  0.118979  0.000000      3.000000
  0.029745  0.029745  0.029745      8.000000
  0.059489  0.029745  0.029745     24.000000
  0.089234  0.029745  0.029745     24.000000
  0.118979  0.029745  0.029745     12.000000
  0.059489  0.059489  0.029745     24.000000
  0.089234  0.059489  0.029745     48.000000
  0.118979  0.059489  0.029745     24.000000
  0.089234  0.089234  0.029745     24.000000
  0.118979  0.089234  0.029745     24.000000
  0.118979  0.118979  0.029745      6.000000
  0.059489  0.059489  0.059489      8.000000
  0.089234  0.059489  0.059489     24.000000
  0.118979  0.059489  0.059489     12.000000
  0.089234  0.089234  0.059489     24.000000
  0.118979  0.089234  0.059489     24.000000
  0.118979  0.118979  0.059489      6.000000
  0.089234  0.089234  0.089234      8.000000
  0.118979  0.089234  0.089234     12.000000
  0.118979  0.118979  0.089234      6.000000
  0.118979  0.118979  0.118979      1.000000


 Subroutine IBZKPT_HF returns following result:
 ==============================================

 Found    512 k-points in 1st BZ
 the following    512 k-points will be used (e.g. in the exchange kernel)
 Following reciprocal coordinates:   # in IRBZ
  0.000000  0.000000  0.000000    0.00195312   1 t-inv F
  0.125000  0.000000  0.000000    0.00195312   2 t-inv F
  0.250000  0.000000  0.000000    0.00195312   3 t-inv F
  0.375000  0.000000  0.000000    0.00195312   4 t-inv F
  0.500000  0.000000  0.000000    0.00195312   5 t-inv F
  0.125000  0.125000  0.000000    0.00195312   6 t-inv F
  0.250000  0.125000  0.000000    0.00195312   7 t-inv F
  0.375000  0.125000  0.000000    0.00195312   8 t-inv F
  0.500000  0.125000  0.000000    0.00195312   9 t-inv F
  0.250000  0.250000  0.000000    0.00195312  10 t-inv F
  0.375000  0.250000  0.000000    0.00195312  11 t-inv F
  0.500000  0.250000  0.000000    0.00195312  12 t-inv F
  0.375000  0.375000  0.000000    0.00195312  13 t-inv F
  0.500000  0.375000  0.000000    0.00195312  14 t-inv F
  0.500000  0.500000  0.000000    0.00195312  15 t-inv F
  0.125000  0.125000  0.125000    0.00195312  16 t-inv F
  0.250000  0.125000  0.125000    0.00195312  17 t-inv F
  0.375000  0.125000  0.125000    0.00195312  18 t-inv F
  0.500000  0.125000  0.125000    0.00195312  19 t-inv F
  0.250000  0.250000  0.125000    0.00195312  20 t-inv F
  0.375000  0.250000  0.125000    0.00195312  21 t-inv F
  0.500000  0.250000  0.125000    0.00195312  22 t-inv F
  0.375000  0.375000  0.125000    0.00195312  23 t-inv F
  0.500000  0.375000  0.125000    0.00195312  24 t-inv F
  0.500000  0.500000  0.125000    0.00195312  25 t-inv F
  0.250000  0.250000  0.250000    0.00195312  26 t-inv F
  0.375000  0.250000  0.250000    0.00195312  27 t-inv F
  0.500000  0.250000  0.250000    0.00195312  28 t-inv F
  0.375000  0.375000  0.250000    0.00195312  29 t-inv F
  0.500000  0.375000  0.250000    0.00195312  30 t-inv F
  0.500000  0.500000  0.250000    0.00195312  31 t-inv F
  0.375000  0.375000  0.375000    0.00195312  32 t-inv F
  0.500000  0.375000  0.375000    0.00195312  33 t-inv F
  0.500000  0.500000  0.375000    0.00195312  34 t-inv F
  0.500000  0.500000  0.500000    0.00195312  35 t-inv F
 -0.125000 -0.000000 -0.000000    0.00195312   2 t-inv F
  0.000000  0.125000  0.000000    0.00195312   2 t-inv F
 -0.000000 -0.125000 -0.000000    0.00195312   2 t-inv F
  0.000000  0.000000  0.125000    0.00195312   2 t-inv F
 -0.000000 -0.000000 -0.125000    0.00195312   2 t-inv F
 -0.250000 -0.000000 -0.000000    0.00195312   3 t-inv F
  0.000000  0.250000  0.000000    0.00195312   3 t-inv F
 -0.000000 -0.250000 -0.000000    0.00195312   3 t-inv F
  0.000000  0.000000  0.250000    0.00195312   3 t-inv F
 -0.000000 -0.000000 -0.250000    0.00195312   3 t-inv F
 -0.375000 -0.000000 -0.000000    0.00195312   4 t-inv F
  0.000000  0.375000  0.000000    0.00195312   4 t-inv F
 -0.000000 -0.375000 -0.000000    0.00195312   4 t-inv F
  0.000000  0.000000  0.375000    0.00195312   4 t-inv F
 -0.000000 -0.000000 -0.375000    0.00195312   4 t-inv F
  0.000000  0.500000  0.000000    0.00195312   5 t-inv F
  0.000000  0.000000  0.500000    0.00195312   5 t-inv F
 -0.125000 -0.125000 -0.000000    0.00195312   6 t-inv F
  0.000000  0.125000  0.125000    0.00195312   6 t-inv F
 -0.000000 -0.125000 -0.125000    0.00195312   6 t-inv F
  0.125000  0.000000  0.125000    0.00195312   6 t-inv F
 -0.125000 -0.000000 -0.125000    0.00195312   6 t-inv F
 -0.125000  0.125000  0.000000    0.00195312   6 t-inv F
  0.125000 -0.125000 -0.000000    0.00195312   6 t-inv F
 -0.125000  0.000000  0.125000    0.00195312   6 t-inv F
  0.125000 -0.000000 -0.125000    0.00195312   6 t-inv F
 -0.000000 -0.125000  0.125000    0.00195312   6 t-inv F
  0.000000  0.125000 -0.125000    0.00195312   6 t-inv F
 -0.250000 -0.125000 -0.000000    0.00195312   7 t-inv F
  0.000000  0.250000  0.125000    0.00195312   7 t-inv F
 -0.000000 -0.250000 -0.125000    0.00195312   7 t-inv F
  0.125000  0.000000  0.250000    0.00195312   7 t-inv F
 -0.125000 -0.000000 -0.250000    0.00195312   7 t-inv F
 -0.125000  0.250000  0.000000    0.00195312   7 t-inv F
  0.125000 -0.250000 -0.000000    0.00195312   7 t-inv F
 -0.250000  0.000000  0.125000    0.00195312   7 t-inv F
  0.250000 -0.000000 -0.125000    0.00195312   7 t-inv F
 -0.000000  0.125000  0.250000    0.00195312   7 t-inv F
  0.000000 -0.125000 -0.250000    0.00195312   7 t-inv F
 -0.000000 -0.250000  0.125000    0.00195312   7 t-inv F
  0.000000  0.250000 -0.125000    0.00195312   7 t-inv F
 -0.125000 -0.000000  0.250000    0.00195312   7 t-inv F
  0.125000  0.000000 -0.250000    0.00195312   7 t-inv F
  0.250000 -0.000000  0.125000    0.00195312   7 t-inv F
 -0.250000  0.000000 -0.125000    0.00195312   7 t-inv F
  0.000000 -0.125000  0.250000    0.00195312   7 t-inv F
 -0.000000  0.125000 -0.250000    0.00195312   7 t-inv F
  0.250000 -0.125000 -0.000000    0.00195312   7 t-inv F
 -0.250000  0.125000  0.000000    0.00195312   7 t-inv F
  0.125000  0.250000 -0.000000    0.00195312   7 t-inv F
 -0.125000 -0.250000  0.000000    0.00195312   7 t-inv F
 -0.375000 -0.125000 -0.000000    0.00195312   8 t-inv F
  0.000000  0.375000  0.125000    0.00195312   8 t-inv F
 -0.000000 -0.375000 -0.125000    0.00195312   8 t-inv F
  0.125000  0.000000  0.375000    0.00195312   8 t-inv F
 -0.125000 -0.000000 -0.375000    0.00195312   8 t-inv F
 -0.125000  0.375000  0.000000    0.00195312   8 t-inv F
  0.125000 -0.375000 -0.000000    0.00195312   8 t-inv F
 -0.375000  0.000000  0.125000    0.00195312   8 t-inv F
  0.375000 -0.000000 -0.125000    0.00195312   8 t-inv F
 -0.000000  0.125000  0.375000    0.00195312   8 t-inv F
  0.000000 -0.125000 -0.375000    0.00195312   8 t-inv F
 -0.000000 -0.375000  0.125000    0.00195312   8 t-inv F
  0.000000  0.375000 -0.125000    0.00195312   8 t-inv F
 -0.125000 -0.000000  0.375000    0.00195312   8 t-inv F
  0.125000  0.000000 -0.375000    0.00195312   8 t-inv F
  0.375000 -0.000000  0.125000    0.00195312   8 t-inv F
 -0.375000  0.000000 -0.125000    0.00195312   8 t-inv F
  0.000000 -0.125000  0.375000    0.00195312   8 t-inv F
 -0.000000  0.125000 -0.375000    0.00195312   8 t-inv F
  0.375000 -0.125000 -0.000000    0.00195312   8 t-inv F
 -0.375000  0.125000  0.000000    0.00195312   8 t-inv F
  0.125000  0.375000 -0.000000    0.00195312   8 t-inv F
 -0.125000 -0.375000  0.000000    0.00195312   8 t-inv F
 -0.500000 -0.125000 -0.000000    0.00195312   9 t-inv F
  0.000000  0.500000  0.125000    0.00195312   9 t-inv F
 -0.000000 -0.500000 -0.125000    0.00195312   9 t-inv F
  0.125000  0.000000  0.500000    0.00195312   9 t-inv F
 -0.125000 -0.000000 -0.500000    0.00195312   9 t-inv F
 -0.125000  0.500000  0.000000    0.00195312   9 t-inv F
  0.125000 -0.500000 -0.000000    0.00195312   9 t-inv F
 -0.500000  0.000000  0.125000    0.00195312   9 t-inv F
  0.500000 -0.000000 -0.125000    0.00195312   9 t-inv F
 -0.000000  0.125000  0.500000    0.00195312   9 t-inv F
  0.000000 -0.125000 -0.500000    0.00195312   9 t-inv F
 -0.250000 -0.250000 -0.000000    0.00195312  10 t-inv F
  0.000000  0.250000  0.250000    0.00195312  10 t-inv F
 -0.000000 -0.250000 -0.250000    0.00195312  10 t-inv F
  0.250000  0.000000  0.250000    0.00195312  10 t-inv F
 -0.250000 -0.000000 -0.250000    0.00195312  10 t-inv F
 -0.250000  0.250000  0.000000    0.00195312  10 t-inv F
  0.250000 -0.250000 -0.000000    0.00195312  10 t-inv F
 -0.250000  0.000000  0.250000    0.00195312  10 t-inv F
  0.250000 -0.000000 -0.250000    0.00195312  10 t-inv F
 -0.000000 -0.250000  0.250000    0.00195312  10 t-inv F
  0.000000  0.250000 -0.250000    0.00195312  10 t-inv F
 -0.375000 -0.250000 -0.000000    0.00195312  11 t-inv F
  0.000000  0.375000  0.250000    0.00195312  11 t-inv F
 -0.000000 -0.375000 -0.250000    0.00195312  11 t-inv F
  0.250000  0.000000  0.375000    0.00195312  11 t-inv F
 -0.250000 -0.000000 -0.375000    0.00195312  11 t-inv F
 -0.250000  0.375000  0.000000    0.00195312  11 t-inv F
  0.250000 -0.375000 -0.000000    0.00195312  11 t-inv F
 -0.375000  0.000000  0.250000    0.00195312  11 t-inv F
  0.375000 -0.000000 -0.250000    0.00195312  11 t-inv F
 -0.000000  0.250000  0.375000    0.00195312  11 t-inv F
  0.000000 -0.250000 -0.375000    0.00195312  11 t-inv F
 -0.000000 -0.375000  0.250000    0.00195312  11 t-inv F
  0.000000  0.375000 -0.250000    0.00195312  11 t-inv F
 -0.250000 -0.000000  0.375000    0.00195312  11 t-inv F
  0.250000  0.000000 -0.375000    0.00195312  11 t-inv F
  0.375000 -0.000000  0.250000    0.00195312  11 t-inv F
 -0.375000  0.000000 -0.250000    0.00195312  11 t-inv F
  0.000000 -0.250000  0.375000    0.00195312  11 t-inv F
 -0.000000  0.250000 -0.375000    0.00195312  11 t-inv F
  0.375000 -0.250000 -0.000000    0.00195312  11 t-inv F
 -0.375000  0.250000  0.000000    0.00195312  11 t-inv F
  0.250000  0.375000 -0.000000    0.00195312  11 t-inv F
 -0.250000 -0.375000  0.000000    0.00195312  11 t-inv F
 -0.500000 -0.250000 -0.000000    0.00195312  12 t-inv F
  0.000000  0.500000  0.250000    0.00195312  12 t-inv F
 -0.000000 -0.500000 -0.250000    0.00195312  12 t-inv F
  0.250000  0.000000  0.500000    0.00195312  12 t-inv F
 -0.250000 -0.000000 -0.500000    0.00195312  12 t-inv F
 -0.250000  0.500000  0.000000    0.00195312  12 t-inv F
  0.250000 -0.500000 -0.000000    0.00195312  12 t-inv F
 -0.500000  0.000000  0.250000    0.00195312  12 t-inv F
  0.500000 -0.000000 -0.250000    0.00195312  12 t-inv F
 -0.000000  0.250000  0.500000    0.00195312  12 t-inv F
  0.000000 -0.250000 -0.500000    0.00195312  12 t-inv F
 -0.375000 -0.375000 -0.000000    0.00195312  13 t-inv F
  0.000000  0.375000  0.375000    0.00195312  13 t-inv F
 -0.000000 -0.375000 -0.375000    0.00195312  13 t-inv F
  0.375000  0.000000  0.375000    0.00195312  13 t-inv F
 -0.375000 -0.000000 -0.375000    0.00195312  13 t-inv F
 -0.375000  0.375000  0.000000    0.00195312  13 t-inv F
  0.375000 -0.375000 -0.000000    0.00195312  13 t-inv F
 -0.375000  0.000000  0.375000    0.00195312  13 t-inv F
  0.375000 -0.000000 -0.375000    0.00195312  13 t-inv F
 -0.000000 -0.375000  0.375000    0.00195312  13 t-inv F
  0.000000  0.375000 -0.375000    0.00195312  13 t-inv F
 -0.500000 -0.375000 -0.000000    0.00195312  14 t-inv F
  0.000000  0.500000  0.375000    0.00195312  14 t-inv F
 -0.000000 -0.500000 -0.375000    0.00195312  14 t-inv F
  0.375000  0.000000  0.500000    0.00195312  14 t-inv F
 -0.375000 -0.000000 -0.500000    0.00195312  14 t-inv F
 -0.375000  0.500000  0.000000    0.00195312  14 t-inv F
  0.375000 -0.500000 -0.000000    0.00195312  14 t-inv F
 -0.500000  0.000000  0.375000    0.00195312  14 t-inv F
  0.500000 -0.000000 -0.375000    0.00195312  14 t-inv F
 -0.000000  0.375000  0.500000    0.00195312  14 t-inv F
  0.000000 -0.375000 -0.500000    0.00195312  14 t-inv F
  0.000000  0.500000  0.500000    0.00195312  15 t-inv F
  0.500000  0.000000  0.500000    0.00195312  15 t-inv F
 -0.125000 -0.125000 -0.125000    0.00195312  16 t-inv F
 -0.125000  0.125000  0.125000    0.00195312  16 t-inv F
  0.125000 -0.125000 -0.125000    0.00195312  16 t-inv F
 -0.125000 -0.125000  0.125000    0.00195312  16 t-inv F
  0.125000  0.125000 -0.125000    0.00195312  16 t-inv F
  0.125000 -0.125000  0.125000    0.00195312  16 t-inv F
 -0.125000  0.125000 -0.125000    0.00195312  16 t-inv F
 -0.250000 -0.125000 -0.125000    0.00195312  17 t-inv F
  0.125000  0.250000  0.125000    0.00195312  17 t-inv F
 -0.125000 -0.250000 -0.125000    0.00195312  17 t-inv F
  0.125000  0.125000  0.250000    0.00195312  17 t-inv F
 -0.125000 -0.125000 -0.250000    0.00195312  17 t-inv F
 -0.125000  0.250000  0.125000    0.00195312  17 t-inv F
  0.125000 -0.250000 -0.125000    0.00195312  17 t-inv F
 -0.250000  0.125000  0.125000    0.00195312  17 t-inv F
  0.250000 -0.125000 -0.125000    0.00195312  17 t-inv F
 -0.125000  0.125000  0.250000    0.00195312  17 t-inv F
  0.125000 -0.125000 -0.250000    0.00195312  17 t-inv F
 -0.250000 -0.125000  0.125000    0.00195312  17 t-inv F
  0.250000  0.125000 -0.125000    0.00195312  17 t-inv F
 -0.125000 -0.250000  0.125000    0.00195312  17 t-inv F
  0.125000  0.250000 -0.125000    0.00195312  17 t-inv F
 -0.125000 -0.125000  0.250000    0.00195312  17 t-inv F
  0.125000  0.125000 -0.250000    0.00195312  17 t-inv F
  0.125000 -0.250000  0.125000    0.00195312  17 t-inv F
 -0.125000  0.250000 -0.125000    0.00195312  17 t-inv F
  0.250000 -0.125000  0.125000    0.00195312  17 t-inv F
 -0.250000  0.125000 -0.125000    0.00195312  17 t-inv F
  0.125000 -0.125000  0.250000    0.00195312  17 t-inv F
 -0.125000  0.125000 -0.250000    0.00195312  17 t-inv F
 -0.375000 -0.125000 -0.125000    0.00195312  18 t-inv F
  0.125000  0.375000  0.125000    0.00195312  18 t-inv F
 -0.125000 -0.375000 -0.125000    0.00195312  18 t-inv F
  0.125000  0.125000  0.375000    0.00195312  18 t-inv F
 -0.125000 -0.125000 -0.375000    0.00195312  18 t-inv F
 -0.125000  0.375000  0.125000    0.00195312  18 t-inv F
  0.125000 -0.375000 -0.125000    0.00195312  18 t-inv F
 -0.375000  0.125000  0.125000    0.00195312  18 t-inv F
  0.375000 -0.125000 -0.125000    0.00195312  18 t-inv F
 -0.125000  0.125000  0.375000    0.00195312  18 t-inv F
  0.125000 -0.125000 -0.375000    0.00195312  18 t-inv F
 -0.375000 -0.125000  0.125000    0.00195312  18 t-inv F
  0.375000  0.125000 -0.125000    0.00195312  18 t-inv F
 -0.125000 -0.375000  0.125000    0.00195312  18 t-inv F
  0.125000  0.375000 -0.125000    0.00195312  18 t-inv F
 -0.125000 -0.125000  0.375000    0.00195312  18 t-inv F
  0.125000  0.125000 -0.375000    0.00195312  18 t-inv F
  0.125000 -0.375000  0.125000    0.00195312  18 t-inv F
 -0.125000  0.375000 -0.125000    0.00195312  18 t-inv F
  0.375000 -0.125000  0.125000    0.00195312  18 t-inv F
 -0.375000  0.125000 -0.125000    0.00195312  18 t-inv F
  0.125000 -0.125000  0.375000    0.00195312  18 t-inv F
 -0.125000  0.125000 -0.375000    0.00195312  18 t-inv F
 -0.500000 -0.125000 -0.125000    0.00195312  19 t-inv F
  0.125000  0.500000  0.125000    0.00195312  19 t-inv F
 -0.125000 -0.500000 -0.125000    0.00195312  19 t-inv F
  0.125000  0.125000  0.500000    0.00195312  19 t-inv F
 -0.125000 -0.125000 -0.500000    0.00195312  19 t-inv F
 -0.125000  0.500000  0.125000    0.00195312  19 t-inv F
  0.125000 -0.500000 -0.125000    0.00195312  19 t-inv F
 -0.125000  0.125000  0.500000    0.00195312  19 t-inv F
  0.125000 -0.125000 -0.500000    0.00195312  19 t-inv F
 -0.500000 -0.125000  0.125000    0.00195312  19 t-inv F
  0.500000  0.125000 -0.125000    0.00195312  19 t-inv F
 -0.250000 -0.250000 -0.125000    0.00195312  20 t-inv F
  0.125000  0.250000  0.250000    0.00195312  20 t-inv F
 -0.125000 -0.250000 -0.250000    0.00195312  20 t-inv F
  0.250000  0.125000  0.250000    0.00195312  20 t-inv F
 -0.250000 -0.125000 -0.250000    0.00195312  20 t-inv F
 -0.250000  0.250000  0.125000    0.00195312  20 t-inv F
  0.250000 -0.250000 -0.125000    0.00195312  20 t-inv F
 -0.250000  0.125000  0.250000    0.00195312  20 t-inv F
  0.250000 -0.125000 -0.250000    0.00195312  20 t-inv F
 -0.125000  0.250000  0.250000    0.00195312  20 t-inv F
  0.125000 -0.250000 -0.250000    0.00195312  20 t-inv F
 -0.250000 -0.250000  0.125000    0.00195312  20 t-inv F
  0.250000  0.250000 -0.125000    0.00195312  20 t-inv F
 -0.125000 -0.250000  0.250000    0.00195312  20 t-inv F
  0.125000  0.250000 -0.250000    0.00195312  20 t-inv F
 -0.250000 -0.125000  0.250000    0.00195312  20 t-inv F
  0.250000  0.125000 -0.250000    0.00195312  20 t-inv F
  0.250000 -0.250000  0.125000    0.00195312  20 t-inv F
 -0.250000  0.250000 -0.125000    0.00195312  20 t-inv F
  0.250000 -0.125000  0.250000    0.00195312  20 t-inv F
 -0.250000  0.125000 -0.250000    0.00195312  20 t-inv F
  0.125000 -0.250000  0.250000    0.00195312  20 t-inv F
 -0.125000  0.250000 -0.250000    0.00195312  20 t-inv F
 -0.375000 -0.250000 -0.125000    0.00195312  21 t-inv F
  0.125000  0.375000  0.250000    0.00195312  21 t-inv F
 -0.125000 -0.375000 -0.250000    0.00195312  21 t-inv F
  0.250000  0.125000  0.375000    0.00195312  21 t-inv F
 -0.250000 -0.125000 -0.375000    0.00195312  21 t-inv F
 -0.250000  0.375000  0.125000    0.00195312  21 t-inv F
  0.250000 -0.375000 -0.125000    0.00195312  21 t-inv F
 -0.375000  0.125000  0.250000    0.00195312  21 t-inv F
  0.375000 -0.125000 -0.250000    0.00195312  21 t-inv F
 -0.125000  0.250000  0.375000    0.00195312  21 t-inv F
  0.125000 -0.250000 -0.375000    0.00195312  21 t-inv F
 -0.375000 -0.250000  0.125000    0.00195312  21 t-inv F
  0.375000  0.250000 -0.125000    0.00195312  21 t-inv F
 -0.125000 -0.375000  0.250000    0.00195312  21 t-inv F
  0.125000  0.375000 -0.250000    0.00195312  21 t-inv F
 -0.250000 -0.125000  0.375000    0.00195312  21 t-inv F
  0.250000  0.125000 -0.375000    0.00195312  21 t-inv F
  0.250000 -0.375000  0.125000    0.00195312  21 t-inv F
 -0.250000  0.375000 -0.125000    0.00195312  21 t-inv F
  0.375000 -0.125000  0.250000    0.00195312  21 t-inv F
 -0.375000  0.125000 -0.250000    0.00195312  21 t-inv F
  0.125000 -0.250000  0.375000    0.00195312  21 t-inv F
 -0.125000  0.250000 -0.375000    0.00195312  21 t-inv F
  0.125000 -0.375000 -0.250000    0.00195312  21 t-inv F
 -0.125000  0.375000  0.250000    0.00195312  21 t-inv F
  0.250000 -0.125000 -0.375000    0.00195312  21 t-inv F
 -0.250000  0.125000  0.375000    0.00195312  21 t-inv F
  0.375000 -0.250000 -0.125000    0.00195312  21 t-inv F
 -0.375000  0.250000  0.125000    0.00195312  21 t-inv F
  0.125000  0.250000 -0.375000    0.00195312  21 t-inv F
 -0.125000 -0.250000  0.375000    0.00195312  21 t-inv F
  0.250000  0.375000 -0.125000    0.00195312  21 t-inv F
 -0.250000 -0.375000  0.125000    0.00195312  21 t-inv F
  0.375000  0.125000 -0.250000    0.00195312  21 t-inv F
 -0.375000 -0.125000  0.250000    0.00195312  21 t-inv F
 -0.250000  0.125000 -0.375000    0.00195312  21 t-inv F
  0.250000 -0.125000  0.375000    0.00195312  21 t-inv F
 -0.375000  0.250000 -0.125000    0.00195312  21 t-inv F
  0.375000 -0.250000  0.125000    0.00195312  21 t-inv F
 -0.125000  0.375000 -0.250000    0.00195312  21 t-inv F
  0.125000 -0.375000  0.250000    0.00195312  21 t-inv F
 -0.375000 -0.125000 -0.250000    0.00195312  21 t-inv F
  0.375000  0.125000  0.250000    0.00195312  21 t-inv F
 -0.250000 -0.375000 -0.125000    0.00195312  21 t-inv F
  0.250000  0.375000  0.125000    0.00195312  21 t-inv F
 -0.125000 -0.250000 -0.375000    0.00195312  21 t-inv F
  0.125000  0.250000  0.375000    0.00195312  21 t-inv F
 -0.500000 -0.250000 -0.125000    0.00195312  22 t-inv F
  0.125000  0.500000  0.250000    0.00195312  22 t-inv F
 -0.125000 -0.500000 -0.250000    0.00195312  22 t-inv F
  0.250000  0.125000  0.500000    0.00195312  22 t-inv F
 -0.250000 -0.125000 -0.500000    0.00195312  22 t-inv F
 -0.250000  0.500000  0.125000    0.00195312  22 t-inv F
  0.250000 -0.500000 -0.125000    0.00195312  22 t-inv F
 -0.500000  0.125000  0.250000    0.00195312  22 t-inv F
  0.500000 -0.125000 -0.250000    0.00195312  22 t-inv F
 -0.125000  0.250000  0.500000    0.00195312  22 t-inv F
  0.125000 -0.250000 -0.500000    0.00195312  22 t-inv F
 -0.500000 -0.250000  0.125000    0.00195312  22 t-inv F
  0.500000  0.250000 -0.125000    0.00195312  22 t-inv F
 -0.125000 -0.500000  0.250000    0.00195312  22 t-inv F
  0.125000  0.500000 -0.250000    0.00195312  22 t-inv F
  0.250000 -0.500000  0.125000    0.00195312  22 t-inv F
 -0.250000  0.500000 -0.125000    0.00195312  22 t-inv F
  0.500000 -0.125000  0.250000    0.00195312  22 t-inv F
 -0.500000  0.125000 -0.250000    0.00195312  22 t-inv F
  0.250000 -0.125000 -0.500000    0.00195312  22 t-inv F
 -0.250000  0.125000  0.500000    0.00195312  22 t-inv F
  0.125000  0.250000 -0.500000    0.00195312  22 t-inv F
 -0.125000 -0.250000  0.500000    0.00195312  22 t-inv F
 -0.375000 -0.375000 -0.125000    0.00195312  23 t-inv F
  0.125000  0.375000  0.375000    0.00195312  23 t-inv F
 -0.125000 -0.375000 -0.375000    0.00195312  23 t-inv F
  0.375000  0.125000  0.375000    0.00195312  23 t-inv F
 -0.375000 -0.125000 -0.375000    0.00195312  23 t-inv F
 -0.375000  0.375000  0.125000    0.00195312  23 t-inv F
  0.375000 -0.375000 -0.125000    0.00195312  23 t-inv F
 -0.375000  0.125000  0.375000    0.00195312  23 t-inv F
  0.375000 -0.125000 -0.375000    0.00195312  23 t-inv F
 -0.125000  0.375000  0.375000    0.00195312  23 t-inv F
  0.125000 -0.375000 -0.375000    0.00195312  23 t-inv F
 -0.375000 -0.375000  0.125000    0.00195312  23 t-inv F
  0.375000  0.375000 -0.125000    0.00195312  23 t-inv F
 -0.125000 -0.375000  0.375000    0.00195312  23 t-inv F
  0.125000  0.375000 -0.375000    0.00195312  23 t-inv F
 -0.375000 -0.125000  0.375000    0.00195312  23 t-inv F
  0.375000  0.125000 -0.375000    0.00195312  23 t-inv F
  0.375000 -0.375000  0.125000    0.00195312  23 t-inv F
 -0.375000  0.375000 -0.125000    0.00195312  23 t-inv F
  0.375000 -0.125000  0.375000    0.00195312  23 t-inv F
 -0.375000  0.125000 -0.375000    0.00195312  23 t-inv F
  0.125000 -0.375000  0.375000    0.00195312  23 t-inv F
 -0.125000  0.375000 -0.375000    0.00195312  23 t-inv F
 -0.500000 -0.375000 -0.125000    0.00195312  24 t-inv F
  0.125000  0.500000  0.375000    0.00195312  24 t-inv F
 -0.125000 -0.500000 -0.375000    0.00195312  24 t-inv F
  0.375000  0.125000  0.500000    0.00195312  24 t-inv F
 -0.375000 -0.125000 -0.500000    0.00195312  24 t-inv F
 -0.375000  0.500000  0.125000    0.00195312  24 t-inv F
  0.375000 -0.500000 -0.125000    0.00195312  24 t-inv F
 -0.500000  0.125000  0.375000    0.00195312  24 t-inv F
  0.500000 -0.125000 -0.375000    0.00195312  24 t-inv F
 -0.125000  0.375000  0.500000    0.00195312  24 t-inv F
  0.125000 -0.375000 -0.500000    0.00195312  24 t-inv F
 -0.500000 -0.375000  0.125000    0.00195312  24 t-inv F
  0.500000  0.375000 -0.125000    0.00195312  24 t-inv F
 -0.125000 -0.500000  0.375000    0.00195312  24 t-inv F
  0.125000  0.500000 -0.375000    0.00195312  24 t-inv F
  0.375000 -0.500000  0.125000    0.00195312  24 t-inv F
 -0.375000  0.500000 -0.125000    0.00195312  24 t-inv F
  0.500000 -0.125000  0.375000    0.00195312  24 t-inv F
 -0.500000  0.125000 -0.375000    0.00195312  24 t-inv F
  0.375000 -0.125000 -0.500000    0.00195312  24 t-inv F
 -0.375000  0.125000  0.500000    0.00195312  24 t-inv F
  0.125000  0.375000 -0.500000    0.00195312  24 t-inv F
 -0.125000 -0.375000  0.500000    0.00195312  24 t-inv F
 -0.500000 -0.500000 -0.125000    0.00195312  25 t-inv F
  0.125000  0.500000  0.500000    0.00195312  25 t-inv F
 -0.125000 -0.500000 -0.500000    0.00195312  25 t-inv F
  0.500000  0.125000  0.500000    0.00195312  25 t-inv F
 -0.500000 -0.125000 -0.500000    0.00195312  25 t-inv F
 -0.250000 -0.250000 -0.250000    0.00195312  26 t-inv F
 -0.250000  0.250000  0.250000    0.00195312  26 t-inv F
  0.250000 -0.250000 -0.250000    0.00195312  26 t-inv F
 -0.250000 -0.250000  0.250000    0.00195312  26 t-inv F
  0.250000  0.250000 -0.250000    0.00195312  26 t-inv F
  0.250000 -0.250000  0.250000    0.00195312  26 t-inv F
 -0.250000  0.250000 -0.250000    0.00195312  26 t-inv F
 -0.375000 -0.250000 -0.250000    0.00195312  27 t-inv F
  0.250000  0.375000  0.250000    0.00195312  27 t-inv F
 -0.250000 -0.375000 -0.250000    0.00195312  27 t-inv F
  0.250000  0.250000  0.375000    0.00195312  27 t-inv F
 -0.250000 -0.250000 -0.375000    0.00195312  27 t-inv F
 -0.250000  0.375000  0.250000    0.00195312  27 t-inv F
  0.250000 -0.375000 -0.250000    0.00195312  27 t-inv F
 -0.375000  0.250000  0.250000    0.00195312  27 t-inv F
  0.375000 -0.250000 -0.250000    0.00195312  27 t-inv F
 -0.250000  0.250000  0.375000    0.00195312  27 t-inv F
  0.250000 -0.250000 -0.375000    0.00195312  27 t-inv F
 -0.375000 -0.250000  0.250000    0.00195312  27 t-inv F
  0.375000  0.250000 -0.250000    0.00195312  27 t-inv F
 -0.250000 -0.375000  0.250000    0.00195312  27 t-inv F
  0.250000  0.375000 -0.250000    0.00195312  27 t-inv F
 -0.250000 -0.250000  0.375000    0.00195312  27 t-inv F
  0.250000  0.250000 -0.375000    0.00195312  27 t-inv F
  0.250000 -0.375000  0.250000    0.00195312  27 t-inv F
 -0.250000  0.375000 -0.250000    0.00195312  27 t-inv F
  0.375000 -0.250000  0.250000    0.00195312  27 t-inv F
 -0.375000  0.250000 -0.250000    0.00195312  27 t-inv F
  0.250000 -0.250000  0.375000    0.00195312  27 t-inv F
 -0.250000  0.250000 -0.375000    0.00195312  27 t-inv F
 -0.500000 -0.250000 -0.250000    0.00195312  28 t-inv F
  0.250000  0.500000  0.250000    0.00195312  28 t-inv F
 -0.250000 -0.500000 -0.250000    0.00195312  28 t-inv F
  0.250000  0.250000  0.500000    0.00195312  28 t-inv F
 -0.250000 -0.250000 -0.500000    0.00195312  28 t-inv F
 -0.250000  0.500000  0.250000    0.00195312  28 t-inv F
  0.250000 -0.500000 -0.250000    0.00195312  28 t-inv F
 -0.250000  0.250000  0.500000    0.00195312  28 t-inv F
  0.250000 -0.250000 -0.500000    0.00195312  28 t-inv F
 -0.500000 -0.250000  0.250000    0.00195312  28 t-inv F
  0.500000  0.250000 -0.250000    0.00195312  28 t-inv F
 -0.375000 -0.375000 -0.250000    0.00195312  29 t-inv F
  0.250000  0.375000  0.375000    0.00195312  29 t-inv F
 -0.250000 -0.375000 -0.375000    0.00195312  29 t-inv F
  0.375000  0.250000  0.375000    0.00195312  29 t-inv F
 -0.375000 -0.250000 -0.375000    0.00195312  29 t-inv F
 -0.375000  0.375000  0.250000    0.00195312  29 t-inv F
  0.375000 -0.375000 -0.250000    0.00195312  29 t-inv F
 -0.375000  0.250000  0.375000    0.00195312  29 t-inv F
  0.375000 -0.250000 -0.375000    0.00195312  29 t-inv F
 -0.250000  0.375000  0.375000    0.00195312  29 t-inv F
  0.250000 -0.375000 -0.375000    0.00195312  29 t-inv F
 -0.375000 -0.375000  0.250000    0.00195312  29 t-inv F
  0.375000  0.375000 -0.250000    0.00195312  29 t-inv F
 -0.250000 -0.375000  0.375000    0.00195312  29 t-inv F
  0.250000  0.375000 -0.375000    0.00195312  29 t-inv F
 -0.375000 -0.250000  0.375000    0.00195312  29 t-inv F
  0.375000  0.250000 -0.375000    0.00195312  29 t-inv F
  0.375000 -0.375000  0.250000    0.00195312  29 t-inv F
 -0.375000  0.375000 -0.250000    0.00195312  29 t-inv F
  0.375000 -0.250000  0.375000    0.00195312  29 t-inv F
 -0.375000  0.250000 -0.375000    0.00195312  29 t-inv F
  0.250000 -0.375000  0.375000    0.00195312  29 t-inv F
 -0.250000  0.375000 -0.375000    0.00195312  29 t-inv F
 -0.500000 -0.375000 -0.250000    0.00195312  30 t-inv F
  0.250000  0.500000  0.375000    0.00195312  30 t-inv F
 -0.250000 -0.500000 -0.375000    0.00195312  30 t-inv F
  0.375000  0.250000  0.500000    0.00195312  30 t-inv F
 -0.375000 -0.250000 -0.500000    0.00195312  30 t-inv F
 -0.375000  0.500000  0.250000    0.00195312  30 t-inv F
  0.375000 -0.500000 -0.250000    0.00195312  30 t-inv F
 -0.500000  0.250000  0.375000    0.00195312  30 t-inv F
  0.500000 -0.250000 -0.375000    0.00195312  30 t-inv F
 -0.250000  0.375000  0.500000    0.00195312  30 t-inv F
  0.250000 -0.375000 -0.500000    0.00195312  30 t-inv F
 -0.500000 -0.375000  0.250000    0.00195312  30 t-inv F
  0.500000  0.375000 -0.250000    0.00195312  30 t-inv F
 -0.250000 -0.500000  0.375000    0.00195312  30 t-inv F
  0.250000  0.500000 -0.375000    0.00195312  30 t-inv F
  0.375000 -0.500000  0.250000    0.00195312  30 t-inv F
 -0.375000  0.500000 -0.250000    0.00195312  30 t-inv F
  0.500000 -0.250000  0.375000    0.00195312  30 t-inv F
 -0.500000  0.250000 -0.375000    0.00195312  30 t-inv F
  0.375000 -0.250000 -0.500000    0.00195312  30 t-inv F
 -0.375000  0.250000  0.500000    0.00195312  30 t-inv F
  0.250000  0.375000 -0.500000    0.00195312  30 t-inv F
 -0.250000 -0.375000  0.500000    0.00195312  30 t-inv F
 -0.500000 -0.500000 -0.250000    0.00195312  31 t-inv F
  0.250000  0.500000  0.500000    0.00195312  31 t-inv F
 -0.250000 -0.500000 -0.500000    0.00195312  31 t-inv F
  0.500000  0.250000  0.500000    0.00195312  31 t-inv F
 -0.500000 -0.250000 -0.500000    0.00195312  31 t-inv F
 -0.375000 -0.375000 -0.375000    0.00195312  32 t-inv F
 -0.375000  0.375000  0.375000    0.00195312  32 t-inv F
  0.375000 -0.375000 -0.375000    0.00195312  32 t-inv F
 -0.375000 -0.375000  0.375000    0.00195312  32 t-inv F
  0.375000  0.375000 -0.375000    0.00195312  32 t-inv F
  0.375000 -0.375000  0.375000    0.00195312  32 t-inv F
 -0.375000  0.375000 -0.375000    0.00195312  32 t-inv F
 -0.500000 -0.375000 -0.375000    0.00195312  33 t-inv F
  0.375000  0.500000  0.375000    0.00195312  33 t-inv F
 -0.375000 -0.500000 -0.375000    0.00195312  33 t-inv F
  0.375000  0.375000  0.500000    0.00195312  33 t-inv F
 -0.375000 -0.375000 -0.500000    0.00195312  33 t-inv F
 -0.375000  0.500000  0.375000    0.00195312  33 t-inv F
  0.375000 -0.500000 -0.375000    0.00195312  33 t-inv F
 -0.375000  0.375000  0.500000    0.00195312  33 t-inv F
  0.375000 -0.375000 -0.500000    0.00195312  33 t-inv F
 -0.500000 -0.375000  0.375000    0.00195312  33 t-inv F
  0.500000  0.375000 -0.375000    0.00195312  33 t-inv F
 -0.500000 -0.500000 -0.375000    0.00195312  34 t-inv F
  0.375000  0.500000  0.500000    0.00195312  34 t-inv F
 -0.375000 -0.500000 -0.500000    0.00195312  34 t-inv F
  0.500000  0.375000  0.500000    0.00195312  34 t-inv F
 -0.500000 -0.375000 -0.500000    0.00195312  34 t-inv F


--------------------------------------------------------------------------------------------------------




 Dimension of arrays:
   k-points           NKPTS =     35   k-points in BZ     NKDIM =    512   number of bands    NBANDS=     48
   number of dos      NEDOS =    301   number of ions     NIONS =      8
   non local maximal  LDIM  =      5   non local SUM 2l+1 LMDIM =     13
   total plane-waves  NPLWV =  21952
   max r-space proj   IRMAX =      1   max aug-charges    IRDMAX=   6028
   dimension x,y,z NGX =    28 NGY =   28 NGZ =   28
   dimension x,y,z NGXF=    56 NGYF=   56 NGZF=   56
   support grid    NGXF=    56 NGYF=   56 NGZF=   56
   ions per type =               4   4
   NGX,Y,Z   is equivalent  to a cutoff of  11.08, 11.08, 11.08 a.u.
   NGXF,Y,Z  is equivalent  to a cutoff of  22.15, 22.15, 22.15 a.u.

 SYSTEM =  MgO-rocksalt
 POSCAR =  Mg4 O4

 Startparameter for this run:
   NWRITE =      2    write-flag & timer
   PREC   = normal    normal or accurate (medium, high low for compatibility)
   ISTART =      0    job   : 0-new  1-cont  2-samecut
   ICHARG =      2    charge: 1-file 2-atom 10-const
   ISPIN  =      1    spin polarized calculation?
   LNONCOLLINEAR =      F non collinear calculations
   LSORBIT =      F    spin-orbit coupling
   INIWAV =      1    electr: 0-lowe 1-rand  2-diag
   LASPH  =      T    aspherical Exc in radial PAW
 Electronic Relaxation 1
   ENCUT  =  600.0 eV  44.10 Ry    6.64 a.u.   8.39  8.39  8.39*2*pi/ulx,y,z
   ENINI  =  600.0     initial cutoff
   ENAUG  =  758.8 eV  augmentation charge cutoff
   NELM   =    200;   NELMIN=  8; NELMDL= -5     # of ELM steps
   EDIFF  = 0.1E-06   stopping-criterion for ELM
   LREAL  =      F    real-space projection
   NLSPLINE    = F    spline interpolate recip. space projectors
   LCOMPAT=      F    compatible to vasp.4.4
   GGA_COMPAT  = T    GGA compatible to vasp.4.4-vasp.4.6
   LMAXPAW     = -100 max onsite density
   LMAXMIX     =    2 max onsite mixed and CHGCAR
   VOSKOWN=      0    Vosko Wilk Nusair interpolation
   ROPT   =    0.00000   0.00000
 Ionic relaxation
   EDIFFG = -.5E-02   stopping-criterion for IOM
   NSW    =   1000    number of steps for IOM
   NBLOCK =      1;   KBLOCK =   1000    inner block; outer block
   IBRION =      2    ionic relax: 0-MD 1-quasi-New 2-CG
   NFREE  =      1    steps in history (QN), initial steepest desc. (CG)
   ISIF   =      3    stress and relaxation
   IWAVPR =     11    prediction:  0-non 1-charg 2-wave 3-comb
   ISYM   =      2    0-nonsym 1-usesym 2-fastsym
   LCORR  =      T    Harris-Foulkes like correction to forces

   POTIM  = 0.5000    time-step for ionic-motion
   TEIN   =    0.0    initial temperature
   TEBEG  =    0.0;   TEEND  =   0.0 temperature during run
   SMASS  =  -3.00    Nose mass-parameter (am)
   estimated Nose-frequenzy (Omega)   =  0.10E-29 period in steps = 0.13E+47 mass=  -0.404E-27a.u.
   SCALEE = 1.0000    scale energy and forces
   NPACO  =    256;   APACO  = 10.0  distance and # of slots for P.C.
   PSTRESS=    0.0 pullay stress

  Mass of Ions in am
   POMASS =  24.30 16.00
  Ionic Valenz
   ZVAL   =   8.00  6.00
  Atomic Wigner-Seitz radii
   RWIGS  =  -1.00 -1.00
  virtual crystal weights
   VCA    =   1.00  1.00
   NELECT =      56.0000    total number of electrons
   NUPDOWN=      -1.0000    fix difference up-down

 DOS related values:
   EMIN   =  10.00;   EMAX   =-10.00  energy-range for DOS
   EFERMI =   0.00
   ISMEAR =     0;   SIGMA  =   0.05  broadening in eV -4-tet -1-fermi 0-gaus

 Electronic relaxation 2 (details)
   IALGO  =     58    algorithm
   LDIAG  =      T    sub-space diagonalisation (order eigenvalues)
   LSUBROT=      F    optimize rotation matrix (better conditioning)
   TURBO    =      0    0=normal 1=particle mesh
   IRESTART =      0    0=no restart 2=restart with 2 vectors
   NREBOOT  =      0    no. of reboots
   NMIN     =      0    reboot dimension
   EREF     =   0.00    reference energy to select bands
   IMIX   =      4    mixing-type and parameters
     AMIX     =   0.40;   BMIX     =  1.00
     AMIX_MAG =   1.60;   BMIX_MAG =  1.00
     AMIN     =   0.10
     WC   =   100.;   INIMIX=   1;  MIXPRE=   1;  MAXMIX= -45

 Intra band minimization:
   WEIMIN = 0.0010     energy-eigenvalue tresh-hold
   EBREAK =  0.52E-09  absolut break condition
   DEPER  =   0.30     relativ break condition

   TIME   =   0.40     timestep for ELM

  volume/ion in A,a.u.               =       9.28        62.60
  Fermi-wavevector in a.u.,A,eV,Ry     =   1.490403  2.816452 30.222618  2.221300
  Thomas-Fermi vector in A             =   2.603189

 Write flags
   LWAVE        =      F    write WAVECAR
   LDOWNSAMPLE  =      F    k-point downsampling of WAVECAR
   LCHARG       =      F    write CHGCAR
   LVTOT        =      F    write LOCPOT, total local potential
   LVHAR        =      F    write LOCPOT, Hartree potential only
   LELF         =      F    write electronic localiz. function (ELF)
   LORBIT       =      0    0 simple, 1 ext, 2 COOP (PROOUT), +10 PAW based schemes


 Dipole corrections
   LMONO  =      F    monopole corrections only (constant potential shift)
   LDIPOL =      F    correct potential (dipole corrections)
   IDIPOL =      0    1-x, 2-y, 3-z, 4-all directions
   EPSILON=  1.0000000 bulk dielectric constant

 Exchange correlation treatment:
   GGA     =    B5    GGA type
   LEXCH   =    12    internal setting for exchange type
   LIBXC   =     F    Libxc
   VOSKOWN =     0    Vosko Wilk Nusair interpolation
   EXXOEP  =     0    0=HF, 1=EXX-LHF (local Hartree Fock) 2=EXX OEP
   LHFCALC =     T    Hartree Fock is set to
   LSYMGRAD=     F    symmetrize gradient (conserves proper symmetry)
   PRECFOCK=normal    Normal, Fast or Accurate (Low or Medium for compatibility)
   LRHFCALC=     F    long range Hartree Fock
   LRSCOR  =     F    long range correlation only (use DFT for short range part)
   LTHOMAS =     F    Thomas Fermi screening in HF
   LMODELHF=     F    short range full HF, long range fraction AEXX
   LFOCKACE=     T    use Adeptively-Compressed-Exchange operator
   ENCUT4O =  -1.0   cutoff for four orbital integrals eV
   LMAXFOCK=     4    L truncation for augmentation on plane wave grid
   LMAXFOCKAE=  -1    L truncation for all-electron charge restoration on plane wave grid
   NMAXFOCKAE=   1    number of basis functions for all-electron charge restoration
   LFOCKAEDFT=     F  apply the AE augmentation even for DFT
   NKREDX  =     1    reduce k-point grid by
   NKREDY  =     1    reduce k-point grid by
   NKREDZ  =     1    reduce k-point grid by
   SHIFTRED=     F    shift reduced grid of Gamma
   HFKIDENT=     F    idential grid for each k-point
   ODDONLY =     F    use only odd q-grid points
   EVENONLY=     F    use only even q-grid points
   HFALPHA =   -1.0000 decay constant for conv. correction
   MCALPHA =    0.0000 extent of test-charge in conv. correction in multipole expansion
   AEXX    =    0.2000 exact exchange contribution
   HFSCREEN=    0.0000 screening length (either q_TF or 0.3 A-1)
   HFSCREENC=   0.0000 screening length for correlation (either q_TF or 0.3 A-1)
   HFRCUT  =    0.0000 spherical cutoff for potential kernel
   ALDAX   =    0.8000 LDA exchange part
   AGGAX   =    0.7200 GGA exchange part
   ALDAC   =    0.1900 LDA correlation
   AGGAC   =    0.8100 GGA correlation
   ENCUTFOCK=  -1.0 apply spherical cutoff to Coloumb kernel
   NBANDSGWLOW=     1    first orbital included in HF term
   NBLOCK_FOCK=    64    blocking factor in FOCK_ACC

 Linear response parameters
   LEPSILON=     F    determine dielectric tensor
   LRPA    =     F    only Hartree local field effects (RPA)
   LNABLA  =     F    use nabla operator in PAW spheres
   LVEL    =     F    velocity operator in full k-point grid
   CSHIFT  =0.1000    complex shift for real part using Kramers Kronig
   OMEGAMAX=  -1.0    maximum frequency
   DEG_THRESHOLD= 0.2000000E-02 threshold for treating states as degnerate
   RTIME   =   -0.100 relaxation time in fs
  (WPLASMAI=    0.000 imaginary part of plasma frequency in eV, 0.658/RTIME)
   DFIELD  = 0.0000000 0.0000000 0.0000000 field for delta impulse in time

  Optional k-point grid parameters
   LKPOINTS_OPT  =     F    use optional k-point grid
   KPOINTS_OPT_MODE=     1    mode for optional k-point grid

 Orbital magnetization related:
   ORBITALMAG=     F  switch on orbital magnetization
   LCHIMAG   =     F  perturbation theory with respect to B field
   DQ        =  0.001000  dq finite difference perturbation B field
   LLRAUG    =     F  two centre corrections for induced B field



--------------------------------------------------------------------------------------------------------


 conjugate gradient relaxation of ions
 charge density and potential will be updated during run
 non-spin polarized calculation
 Conjugate gradient for all bands (Freysoldt, et al. PRB 79, 241103 (2009))
 preconditioned conjugated gradient
 perform sub-space diagonalisation
    before iterative eigenvector-optimisation
 modified Broyden-mixing scheme, WC =      100.0
 initial mixing is a Kerker type mixing with AMIX =  0.4000 and BMIX =      1.0000
 Hartree-type preconditioning will be used
 using additional bands           20
 reciprocal scheme for non local part
 use partial core corrections
 no Harris-corrections to forces
 use gradient corrections
 use of overlap-Matrix (Vanderbilt PP)
 Gauss-broadening in eV      SIGMA  =   0.05


--------------------------------------------------------------------------------------------------------


  energy-cutoff  :      600.00
  volume of cell :       74.22
      direct lattice vectors                 reciprocal lattice vectors
     4.202430997  0.000000000 -0.000000000     0.237957506  0.000000000 -0.000000000
    -0.000000000  4.202430997 -0.000000000    -0.000000000  0.237957506  0.000000000
     0.000000000  0.000000000  4.202430997     0.000000000  0.000000000  0.237957506

  length of vectors
     4.202430997  4.202430997  4.202430997     0.237957506  0.237957506  0.237957506



 k-points in units of 2pi/SCALE and weight: pymatgen v2020.8.13 with grid density =
   0.00000000  0.00000000  0.00000000       0.002
   0.02974469  0.00000000  0.00000000       0.012
   0.05948938  0.00000000  0.00000000       0.012
   0.08923406  0.00000000  0.00000000       0.012
   0.11897875  0.00000000  0.00000000       0.006
   0.02974469  0.02974469  0.00000000       0.023
   0.05948938  0.02974469  0.00000000       0.047
   0.08923406  0.02974469  0.00000000       0.047
   0.11897875  0.02974469  0.00000000       0.023
   0.05948938  0.05948938  0.00000000       0.023
   0.08923406  0.05948938  0.00000000       0.047
   0.11897875  0.05948938  0.00000000       0.023
   0.08923406  0.08923406  0.00000000       0.023
   0.11897875  0.08923406  0.00000000       0.023
   0.11897875  0.11897875  0.00000000       0.006
   0.02974469  0.02974469  0.02974469       0.016
   0.05948938  0.02974469  0.02974469       0.047
   0.08923406  0.02974469  0.02974469       0.047
   0.11897875  0.02974469  0.02974469       0.023
   0.05948938  0.05948938  0.02974469       0.047
   0.08923406  0.05948938  0.02974469       0.094
   0.11897875  0.05948938  0.02974469       0.047
   0.08923406  0.08923406  0.02974469       0.047
   0.11897875  0.08923406  0.02974469       0.047
   0.11897875  0.11897875  0.02974469       0.012
   0.05948938  0.05948938  0.05948938       0.016
   0.08923406  0.05948938  0.05948938       0.047
   0.11897875  0.05948938  0.05948938       0.023
   0.08923406  0.08923406  0.05948938       0.047
   0.11897875  0.08923406  0.05948938       0.047
   0.11897875  0.11897875  0.05948938       0.012
   0.08923406  0.08923406  0.08923406       0.016
   0.11897875  0.08923406  0.08923406       0.023
   0.11897875  0.11897875  0.08923406       0.012
   0.11897875  0.11897875  0.11897875       0.002

 k-points in reciprocal lattice and weights: pymatgen v2020.8.13 with grid density =
   0.00000000  0.00000000  0.00000000       0.002
   0.12500000  0.00000000  0.00000000       0.012
   0.25000000  0.00000000  0.00000000       0.012
   0.37500000  0.00000000  0.00000000       0.012
   0.50000000  0.00000000  0.00000000       0.006
   0.12500000  0.12500000  0.00000000       0.023
   0.25000000  0.12500000  0.00000000       0.047
   0.37500000  0.12500000  0.00000000       0.047
   0.50000000  0.12500000  0.00000000       0.023
   0.25000000  0.25000000  0.00000000       0.023
   0.37500000  0.25000000  0.00000000       0.047
   0.50000000  0.25000000  0.00000000       0.023
   0.37500000  0.37500000  0.00000000       0.023
   0.50000000  0.37500000  0.00000000       0.023
   0.50000000  0.50000000  0.00000000       0.006
   0.12500000  0.12500000  0.12500000       0.016
   0.25000000  0.12500000  0.12500000       0.047
   0.37500000  0.12500000  0.12500000       0.047
   0.50000000  0.12500000  0.12500000       0.023
   0.25000000  0.25000000  0.12500000       0.047
   0.37500000  0.25000000  0.12500000       0.094
   0.50000000  0.25000000  0.12500000       0.047
   0.37500000  0.37500000  0.12500000       0.047
   0.50000000  0.37500000  0.12500000       0.047
   0.50000000  0.50000000  0.12500000       0.012
   0.25000000  0.25000000  0.25000000       0.016
   0.37500000  0.25000000  0.25000000       0.047
   0.50000000  0.25000000  0.25000000       0.023
   0.37500000  0.37500000  0.25000000       0.047
   0.50000000  0.37500000  0.25000000       0.047
   0.50000000  0.50000000  0.25000000       0.012
   0.37500000  0.37500000  0.37500000       0.016
   0.50000000  0.37500000  0.37500000       0.023
   0.50000000  0.50000000  0.37500000       0.012
   0.50000000  0.50000000  0.50000000       0.002

 position of ions in fractional coordinates (direct lattice)
   0.00000000  0.00000000  0.00000000
   0.00000000  0.50000000  0.50000000
   0.50000000  0.00000000  0.50000000
   0.50000000  0.50000000  0.00000000
   0.50000000  0.00000000  0.00000000
   0.50000000  0.50000000  0.50000000
   0.00000000  0.00000000  0.50000000
   0.00000000  0.50000000  0.00000000

 position of ions in cartesian coordinates  (Angst):
   0.00000000  0.00000000  0.00000000
   0.00000000  2.10121550  2.10121550
   2.10121550  0.00000000  2.10121550
   2.10121550  2.10121550  0.00000000
   2.10121550  0.00000000  0.00000000
   2.10121550  2.10121550  2.10121550
   0.00000000  0.00000000  2.10121550
   0.00000000  2.10121550  0.00000000



--------------------------------------------------------------------------------------------------------


 k-point   1 :   0.0000 0.0000 0.0000  plane waves:    2517
 k-point   2 :   0.1250 0.0000 0.0000  plane waves:    2481
 k-point   3 :   0.2500 0.0000 0.0000  plane waves:    2485
 k-point   4 :   0.3750 0.0000 0.0000  plane waves:    2469
 k-point   5 :   0.5000 0.0000 0.0000  plane waves:    2496
 k-point   6 :   0.1250 0.1250 0.0000  plane waves:    2472
 k-point   7 :   0.2500 0.1250 0.0000  plane waves:    2486
 k-point   8 :   0.3750 0.1250 0.0000  plane waves:    2489
 k-point   9 :   0.5000 0.1250 0.0000  plane waves:    2480
 k-point  10 :   0.2500 0.2500 0.0000  plane waves:    2468
 k-point  11 :   0.3750 0.2500 0.0000  plane waves:    2467
 k-point  12 :   0.5000 0.2500 0.0000  plane waves:    2494
 k-point  13 :   0.3750 0.3750 0.0000  plane waves:    2472
 k-point  14 :   0.5000 0.3750 0.0000  plane waves:    2482
 k-point  15 :   0.5000 0.5000 0.0000  plane waves:    2464
 k-point  16 :   0.1250 0.1250 0.1250  plane waves:    2478
 k-point  17 :   0.2500 0.1250 0.1250  plane waves:    2478
 k-point  18 :   0.3750 0.1250 0.1250  plane waves:    2481
 k-point  19 :   0.5000 0.1250 0.1250  plane waves:    2472
 k-point  20 :   0.2500 0.2500 0.1250  plane waves:    2487
 k-point  21 :   0.3750 0.2500 0.1250  plane waves:    2481
 k-point  22 :   0.5000 0.2500 0.1250  plane waves:    2482
 k-point  23 :   0.3750 0.3750 0.1250  plane waves:    2486
 k-point  24 :   0.5000 0.3750 0.1250  plane waves:    2484
 k-point  25 :   0.5000 0.5000 0.1250  plane waves:    2468
 k-point  26 :   0.2500 0.2500 0.2500  plane waves:    2470
 k-point  27 :   0.3750 0.2500 0.2500  plane waves:    2473
 k-point  28 :   0.5000 0.2500 0.2500  plane waves:    2480
 k-point  29 :   0.3750 0.3750 0.2500  plane waves:    2465
 k-point  30 :   0.5000 0.3750 0.2500  plane waves:    2452
 k-point  31 :   0.5000 0.5000 0.2500  plane waves:    2468
 k-point  32 :   0.3750 0.3750 0.3750  plane waves:    2461
 k-point  33 :   0.5000 0.3750 0.3750  plane waves:    2448
 k-point  34 :   0.5000 0.5000 0.3750  plane waves:    2464
 k-point  35 :   0.5000 0.5000 0.5000  plane waves:    2440

 maximum and minimum number of plane-waves per node :       644      580

 maximum number of plane-waves:      2517
 maximum index in each direction:
   IXMAX=    8   IYMAX=    8   IZMAX=    8
   IXMIN=   -8   IYMIN=   -8   IZMIN=   -8


 parallel 3D FFT for wavefunctions:
    minimum data exchange during FFTs selected (reduces bandwidth)
 parallel 3D FFT for charge:
    minimum data exchange during FFTs selected (reduces bandwidth)


 Radii for the augmentation spheres in the non-local exchange
 for species   1 augmentation radius   1.037 (default was   0.829)
       energy cutoff for augmentation   2400.0
 for species   2 augmentation radius   0.902 (default was   0.722)
       energy cutoff for augmentation   2400.0

 real space projection operators:
  total allocation   :       1320.31 KBytes
  max/ min on nodes  :        332.34        327.81

 Maximum index for augmentation-charges in exchange          348
  SETUP_FOCK is finished

 total amount of memory used by VASP MPI-rank0    37757. kBytes
=======================================================================

   base      :      30000. kBytes
   nonl-proj :       4978. kBytes
   fftplans  :        487. kBytes
   grid      :        402. kBytes
   one-center:         16. kBytes
   HF        :         67. kBytes
   nonlr-proj:        598. kBytes
   wavefun   :       1209. kBytes

     INWAV:  cpu time      0.0000: real time      0.0002
 Broyden mixing: mesh for mixing (old mesh)
   NGX = 17   NGY = 17   NGZ = 17
  (NGX  = 56   NGY  = 56   NGZ  = 56)
  gives a total of   4913 points

 initial charge density was supplied:
 charge density of overlapping atoms calculated
 number of electron      56.0000000 magnetization
 keeping initial charge density in first step


--------------------------------------------------------------------------------------------------------


 Maximum index for augmentation-charges          385 (set IRDMAX)


--------------------------------------------------------------------------------------------------------


    FEWALD:  cpu time      0.0013: real time      0.0013


--------------------------------------- Iteration      1(   1)  ---------------------------------------


    POTLOK:  cpu time      0.0147: real time      0.0147
    SETDIJ:  cpu time      0.1094: real time      0.1094
    TRIAL :  cpu time      0.5114: real time      0.5115
    CORREC:  cpu time      0.0008: real time      0.0008
    --------------------------------------------
      LOOP:  cpu time      0.6367: real time      0.6439

 eigenvalue-minimisations  :  3360
 total energy-change (2. order) :-0.1618709E+03  (-0.4567729E+04)
 number of electron      56.0000000 magnetization
 augmentation part       56.0000000 magnetization

 Free energy of the ion-electron system (eV)
  ---------------------------------------------------
  alpha Z        PSCENC =       280.05742531
  Ewald energy   TEWEN  =     -3858.97050051
  -Hartree energ DENC   =     -1173.91072155
  -exchange      EXHF   =         0.00000000
  -V(xc)+E(xc)   XCENC  =       220.56328908
  PAW double counting   =      3981.86741742    -4752.31949929
  entropy T*S    EENTRO =        -0.00135546
  eigenvalues    EBANDS =      -811.60058752
  atomic energy  EATOM  =      5952.44367396
  ---------------------------------------------------
  free energy    TOTEN  =      -161.87085856 eV

  energy without entropy =     -161.86950310  energy(sigma->0) =     -161.87018083
  exchange ACFDT corr.  =         0.00000000  see jH, gK, PRB 81, 115126


--------------------------------------------------------------------------------------------------------




--------------------------------------- Iteration      1(   2)  ---------------------------------------


    TRIAL :  cpu time      0.8785: real time      0.8786
    CORREC:  cpu time      0.0003: real time      0.0003
    --------------------------------------------
      LOOP:  cpu time      0.8815: real time      0.8867

 eigenvalue-minimisations  :  4224
 total energy-change (2. order) :-0.2370774E+03  (-0.2361078E+03)
 number of electron      56.0000000 magnetization
 augmentation part       56.0000000 magnetization

 Free energy of the ion-electron system (eV)
  ---------------------------------------------------
  alpha Z        PSCENC =       280.05742531
  Ewald energy   TEWEN  =     -3858.97050051
  -Hartree energ DENC   =     -1173.91072155
  -exchange      EXHF   =         0.00000000
  -V(xc)+E(xc)   XCENC  =       220.56328908
  PAW double counting   =      3981.86741742    -4752.31949929
  entropy T*S    EENTRO =        -0.00000000
  eigenvalues    EBANDS =     -1048.67931730
  atomic energy  EATOM  =      5952.44367396
  ---------------------------------------------------
  free energy    TOTEN  =      -398.94823289 eV

  energy without entropy =     -398.94823289  energy(sigma->0) =     -398.94823289
  exchange ACFDT corr.  =         0.00000000  see jH, gK, PRB 81, 115126


--------------------------------------------------------------------------------------------------------




--------------------------------------- Iteration      1(   3)  ---------------------------------------


    TRIAL :  cpu time      0.8126: real time      0.8126
    CORREC:  cpu time      0.0003: real time      0.0003
    --------------------------------------------
      LOOP:  cpu time      0.8145: real time      0.8195

 eigenvalue-minimisations  :  3936
 total energy-change (2. order) :-0.2817931E+01  (-0.2817931E+01)
 number of electron      56.0000000 magnetization
 augmentation part       56.0000000 magnetization

 Free energy of the ion-electron system (eV)
  ---------------------------------------------------
  alpha Z        PSCENC =       280.05742531
  Ewald energy   TEWEN  =     -3858.97050051
  -Hartree energ DENC   =     -1173.91072155
  -exchange      EXHF   =         0.00000000
  -V(xc)+E(xc)   XCENC  =       220.56328908
  PAW double counting   =      3981.86741742    -4752.31949929
  entropy T*S    EENTRO =        -0.00000000
  eigenvalues    EBANDS =     -1051.49724850
  atomic energy  EATOM  =      5952.44367396
  ---------------------------------------------------
  free energy    TOTEN  =      -401.76616408 eV

  energy without entropy =     -401.76616408  energy(sigma->0) =     -401.76616408
  exchange ACFDT corr.  =         0.00000000  see jH, gK, PRB 81, 115126


--------------------------------------------------------------------------------------------------------




--------------------------------------- Iteration      1(   4)  ---------------------------------------


    TRIAL :  cpu time      1.7369: real time      1.7370
    CORREC:  cpu time      0.0003: real time      0.0003
    --------------------------------------------
      LOOP:  cpu time      1.7435: real time      1.7441

 eigenvalue-minimisations  :  5760
 total energy-change (2. order) :-0.5356520E-02  (-0.5356515E-02)
 number of electron      56.0000000 magnetization
 augmentation part       56.0000000 magnetization

 Free energy of the ion-electron system (eV)
  ---------------------------------------------------
  alpha Z        PSCENC =       280.05742531
  Ewald energy   TEWEN  =     -3858.97050051
  -Hartree energ DENC   =     -1173.91072155
  -exchange      EXHF   =         0.00000000
  -V(xc)+E(xc)   XCENC  =       220.56328908
  PAW double counting   =      3981.86741742    -4752.31949929
  entropy T*S    EENTRO =        -0.00000000
  eigenvalues    EBANDS =     -1051.50260502
  atomic energy  EATOM  =      5952.44367396
  ---------------------------------------------------
  free energy    TOTEN  =      -401.77152060 eV

  energy without entropy =     -401.77152060  energy(sigma->0) =     -401.77152060
  exchange ACFDT corr.  =         0.00000000  see jH, gK, PRB 81, 115126


--------------------------------------------------------------------------------------------------------




--------------------------------------- Iteration      1(   5)  ---------------------------------------


    POTLOK:  cpu time      0.0164: real time      0.0164
    SETDIJ:  cpu time      0.3781: real time      0.3782
    TRIAL :  cpu time    172.0494: real time    172.0644
    CORREC:  cpu time      0.0003: real time      0.0003
    CHARGE:  cpu time      0.0091: real time      0.0092
    --------------------------------------------
      LOOP:  cpu time    172.4551: real time    172.4743

 eigenvalue-minimisations  :  3840
 total energy-change (2. order) : 0.3379150E+03  (-0.4120028E+00)
 number of electron      55.9999941 magnetization
 augmentation part       19.9969398 magnetization

 Free energy of the ion-electron system (eV)
  ---------------------------------------------------
  alpha Z        PSCENC =       280.05742531
  Ewald energy   TEWEN  =     -3858.97050051
  -Hartree energ DENC   =     -1173.91072155
  -exchange      EXHF   =       166.88179154
  -V(xc)+E(xc)   XCENC  =       175.35771526
  PAW double counting   =      4023.38239907    -4483.39663475
  entropy T*S    EENTRO =        -0.00000000
  eigenvalues    EBANDS =     -1145.70169693
  atomic energy  EATOM  =      5952.44367396
  ---------------------------------------------------
  free energy    TOTEN  =       -63.85654860 eV

  energy without entropy =      -63.85654860  energy(sigma->0) =      -63.85654860
  exchange ACFDT corr.  =        -0.00000000  see jH, gK, PRB 81, 115126


--------------------------------------------------------------------------------------------------------




--------------------------------------- Iteration      1(   6)  ---------------------------------------


    POTLOK:  cpu time      0.0148: real time      0.0148
    SETDIJ:  cpu time      0.3762: real time      0.3763
    TRIAL :  cpu time    176.0552: real time    176.0697
    CORREC:  cpu time    180.5733: real time    180.5888
    CHARGE:  cpu time      0.0085: real time      0.0085
    --------------------------------------------
      LOOP:  cpu time    357.0323: real time    357.0657

 eigenvalue-minimisations  :     0
 total energy-change (2. order) : 0.2412114E+02  (-0.1322929E+02)
 number of electron      55.9999956 magnetization
 augmentation part       19.5460045 magnetization

 Free energy of the ion-electron system (eV)
  ---------------------------------------------------
  alpha Z        PSCENC =       280.05742531
  Ewald energy   TEWEN  =     -3858.97050051
  -Hartree energ DENC   =     -1356.04147290
  -exchange      EXHF   =       167.85512009
  -V(xc)+E(xc)   XCENC  =       188.40521938
  PAW double counting   =      4634.02499777    -5089.58634608
  entropy T*S    EENTRO =        -0.00000000
  eigenvalues    EBANDS =      -957.92352165
  atomic energy  EATOM  =      5952.44367396
  ---------------------------------------------------
  free energy    TOTEN  =       -39.73540463 eV

  energy without entropy =      -39.73540463  energy(sigma->0) =      -39.73540463
  exchange ACFDT corr.  =         0.00000000  see jH, gK, PRB 81, 115126


--------------------------------------------------------------------------------------------------------




--------------------------------------- Iteration      1(   7)  ---------------------------------------


    POTLOK:  cpu time      0.0128: real time      0.0128
    SETDIJ:  cpu time      0.3784: real time      0.3784
    TRIAL :  cpu time    179.6293: real time    179.6436
    CORREC:  cpu time    179.6552: real time    179.6700
    CHARGE:  cpu time      0.0077: real time      0.0077
    --------------------------------------------
      LOOP:  cpu time    359.6910: real time    359.7207

 eigenvalue-minimisations  :     0
 total energy-change (2. order) :-0.1318959E+02  (-0.1652251E+01)
 number of electron      55.9999960 magnetization
 augmentation part       19.2869667 magnetization

 Free energy of the ion-electron system (eV)
  ---------------------------------------------------
  alpha Z        PSCENC =       280.05742531
  Ewald energy   TEWEN  =     -3858.97050051
  -Hartree energ DENC   =     -1241.75356938
  -exchange      EXHF   =       162.13619790
  -V(xc)+E(xc)   XCENC  =       181.16068225
  PAW double counting   =      4562.61938118    -5022.33880345
  entropy T*S    EENTRO =        -0.00000000
  eigenvalues    EBANDS =     -1068.27948257
  atomic energy  EATOM  =      5952.44367396
  ---------------------------------------------------
  free energy    TOTEN  =       -52.92499532 eV

  energy without entropy =      -52.92499532  energy(sigma->0) =      -52.92499532
  exchange ACFDT corr.  =         0.00000000  see jH, gK, PRB 81, 115126


--------------------------------------------------------------------------------------------------------




--------------------------------------- Iteration      1(   8)  ---------------------------------------


    POTLOK:  cpu time      0.0123: real time      0.0123
    SETDIJ:  cpu time      0.3794: real time      0.3794
    TRIAL :  cpu time    179.8634: real time    179.8784
    CORREC:  cpu time    180.3128: real time    180.3274
    CHARGE:  cpu time      0.0077: real time      0.0077
    --------------------------------------------
      LOOP:  cpu time    360.5778: real time    360.6134

 eigenvalue-minimisations  :     0
 total energy-change (2. order) :-0.1647377E+01  (-0.4137087E+00)
 number of electron      55.9999960 magnetization
 augmentation part       19.3917020 magnetization

 Free energy of the ion-electron system (eV)
  ---------------------------------------------------
  alpha Z        PSCENC =       280.05742531
  Ewald energy   TEWEN  =     -3858.97050051
  -Hartree energ DENC   =     -1223.79497927
  -exchange      EXHF   =       160.76194148
  -V(xc)+E(xc)   XCENC  =       179.76310282
  PAW double counting   =      4490.82906515    -4945.69551722
  entropy T*S    EENTRO =        -0.00000000
  eigenvalues    EBANDS =     -1089.96658430
  atomic energy  EATOM  =      5952.44367396
  ---------------------------------------------------
  free energy    TOTEN  =       -54.57237259 eV

  energy without entropy =      -54.57237259  energy(sigma->0) =      -54.57237259
  exchange ACFDT corr.  =         0.00000000  see jH, gK, PRB 81, 115126


--------------------------------------------------------------------------------------------------------




--------------------------------------- Iteration      1(   9)  ---------------------------------------


    POTLOK:  cpu time      0.0122: real time      0.0122
    SETDIJ:  cpu time      0.3820: real time      0.3820
    TRIAL :  cpu time    179.7834: real time    179.8001
    CORREC:  cpu time    181.0839: real time    181.0986
    CHARGE:  cpu time      0.0076: real time      0.0076
    --------------------------------------------
      LOOP:  cpu time    361.2731: real time    361.3089

 eigenvalue-minimisations  :     0
 total energy-change (2. order) :-0.4140704E+00  (-0.8012662E-01)
 number of electron      55.9999959 magnetization
 augmentation part       19.3910492 magnetization

 Free energy of the ion-electron system (eV)
  ---------------------------------------------------
  alpha Z        PSCENC =       280.05742531
  Ewald energy   TEWEN  =     -3858.97050051
  -Hartree energ DENC   =     -1227.69474972
  -exchange      EXHF   =       160.63573807
  -V(xc)+E(xc)   XCENC  =       179.90454002
  PAW double counting   =      4474.39429616    -4935.62554513
  entropy T*S    EENTRO =        -0.00000000
  eigenvalues    EBANDS =     -1080.13132111
  atomic energy  EATOM  =      5952.44367396
  ---------------------------------------------------
  free energy    TOTEN  =       -54.98644295 eV

  energy without entropy =      -54.98644295  energy(sigma->0) =      -54.98644295
  exchange ACFDT corr.  =         0.00000000  see jH, gK, PRB 81, 115126


--------------------------------------------------------------------------------------------------------




--------------------------------------- Iteration      1(  10)  ---------------------------------------


    POTLOK:  cpu time      0.0122: real time      0.0122
    SETDIJ:  cpu time      0.3814: real time      0.3814
    TRIAL :  cpu time    180.1133: real time    180.1283
    CORREC:  cpu time    180.7205: real time    180.7355
    CHARGE:  cpu time      0.0077: real time      0.0077
    --------------------------------------------
      LOOP:  cpu time    361.2415: real time    361.2760

 eigenvalue-minimisations  :     0
 total energy-change (2. order) :-0.8014748E-01  (-0.1300223E-01)
 number of electron      55.9999959 magnetization
 augmentation part       19.3994704 magnetization

 Free energy of the ion-electron system (eV)
  ---------------------------------------------------
  alpha Z        PSCENC =       280.05742531
  Ewald energy   TEWEN  =     -3858.97050051
  -Hartree energ DENC   =     -1226.01313718
  -exchange      EXHF   =       160.50829750
  -V(xc)+E(xc)   XCENC  =       179.80046749
  PAW double counting   =      4467.57249267    -4927.41863655
  entropy T*S    EENTRO =        -0.00000000
  eigenvalues    EBANDS =     -1083.04667312
  atomic energy  EATOM  =      5952.44367396
  ---------------------------------------------------
  free energy    TOTEN  =       -55.06659043 eV

  energy without entropy =      -55.06659043  energy(sigma->0) =      -55.06659043
  exchange ACFDT corr.  =        -0.00000000  see jH, gK, PRB 81, 115126


[...]
      4     -39.6938      2.00000
      5     -39.6446      2.00000
      6     -39.6446      2.00000
      7     -39.6359      2.00000
      8     -39.6359      2.00000
      9     -39.6335      2.00000
     10     -39.6335      2.00000
     11     -39.6299      2.00000
     12     -39.6299      2.00000
     13     -15.4850      2.00000
     14     -15.4850      2.00000
     15     -15.2396      2.00000
     16     -15.2396      2.00000
     17      -2.6411      2.00000
     18      -2.6411      2.00000
     19      -2.3872      2.00000
     20      -2.3872      2.00000
     21       0.1372      2.00000
     22       0.1372      2.00000
     23       0.7169      2.00000
     24       0.7169      2.00000
     25       0.8769      2.00000
     26       0.8769      2.00000
     27       1.0603      2.00000
     28       1.0603      2.00000
     29      12.4905      0.00000
     30      12.4905      0.00000
     31      13.2286      0.00000
     32      13.2286      0.00000
     33      16.5370      0.00000
     34      16.5370      0.00000
     35      16.7128      0.00000
     36      16.7128      0.00000
     37      18.4205      0.00000
     38      18.4205      0.00000
     39      19.5966      0.00000
     40      19.5966      0.00000
     41      20.9971      0.00000
     42      20.9971      0.00000
     43      21.1426      0.00000
     44      21.1427      0.00000
     45      24.6634      0.00000
     46      24.6634      0.00000
     47      25.3166      0.00000
     48      25.3178      0.00000

 k-point    31 :       0.5000    0.5000    0.2500
  band No.  band energies     occupation
      1     -39.6988      2.00000
      2     -39.6988      2.00000
      3     -39.6988      2.00000
      4     -39.6988      2.00000
      5     -39.6397      2.00000
      6     -39.6397      2.00000
      7     -39.6397      2.00000
      8     -39.6397      2.00000
      9     -39.6303      2.00000
     10     -39.6303      2.00000
     11     -39.6303      2.00000
     12     -39.6303      2.00000
     13     -15.3517      2.00000
     14     -15.3517      2.00000
     15     -15.3517      2.00000
     16     -15.3517      2.00000
     17      -2.6231      2.00000
     18      -2.6231      2.00000
     19      -2.6231      2.00000
     20      -2.6231      2.00000
     21       0.4663      2.00000
     22       0.4663      2.00000
     23       0.4663      2.00000
     24       0.4663      2.00000
     25       1.0293      2.00000
     26       1.0293      2.00000
     27       1.0293      2.00000
     28       1.0293      2.00000
     29      12.7458      0.00000
     30      12.7458      0.00000
     31      12.7458      0.00000
     32      12.7458      0.00000
     33      16.7036      0.00000
     34      16.7036      0.00000
     35      16.7036      0.00000
     36      16.7036      0.00000
     37      19.1710      0.00000
     38      19.1710      0.00000
     39      19.1710      0.00000
     40      19.1710      0.00000
     41      21.0035      0.00000
     42      21.0035      0.00000
     43      21.0035      0.00000
     44      21.0035      0.00000
     45      25.6911      0.00000
     46      25.7036      0.00000
     47      25.7466      0.00000
     48      25.8344      0.00000

 k-point    32 :       0.3750    0.3750    0.3750
  band No.  band energies     occupation
      1     -39.7028      2.00000
      2     -39.7028      2.00000
      3     -39.7028      2.00000
      4     -39.6963      2.00000
      5     -39.6375      2.00000
      6     -39.6375      2.00000
      7     -39.6375      2.00000
      8     -39.6333      2.00000
      9     -39.6333      2.00000
     10     -39.6333      2.00000
     11     -39.6291      2.00000
     12     -39.6291      2.00000
     13     -15.5417      2.00000
     14     -15.2782      2.00000
     15     -15.2782      2.00000
     16     -15.2782      2.00000
     17      -2.8062      2.00000
     18      -2.8062      2.00000
     19      -2.8062      2.00000
     20      -2.5015      2.00000
     21       0.5309      2.00000
     22       0.5309      2.00000
     23       0.5309      2.00000
     24       0.9132      2.00000
     25       0.9132      2.00000
     26       0.9132      2.00000
     27       1.1254      2.00000
     28       1.1254      2.00000
     29      11.9549      0.00000
     30      12.7481      0.00000
     31      12.7481      0.00000
     32      12.7481      0.00000
     33      16.7539      0.00000
     34      16.7984      0.00000
     35      16.7984      0.00000
     36      16.7984      0.00000
     37      19.0599      0.00000
     38      19.0599      0.00000
     39      19.0599      0.00000
     40      20.6831      0.00000
     41      20.6831      0.00000
     42      20.9497      0.00000
     43      20.9497      0.00000
     44      20.9497      0.00000
     45      25.1620      0.00000
     46      25.1620      0.00000
     47      25.1621      0.00000
     48      25.8245      0.00000

 k-point    33 :       0.5000    0.3750    0.3750
  band No.  band energies     occupation
      1     -39.7052      2.00000
      2     -39.7052      2.00000
      3     -39.7019      2.00000
      4     -39.7019      2.00000
      5     -39.6365      2.00000
      6     -39.6365      2.00000
      7     -39.6320      2.00000
      8     -39.6320      2.00000
      9     -39.6310      2.00000
     10     -39.6310      2.00000
     11     -39.6309      2.00000
     12     -39.6309      2.00000
     13     -15.3993      2.00000
     14     -15.3993      2.00000
     15     -15.2653      2.00000
     16     -15.2653      2.00000
     17      -2.9181      2.00000
     18      -2.9181      2.00000
     19      -2.7732      2.00000
     20      -2.7732      2.00000
     21       0.6104      2.00000
     22       0.6104      2.00000
     23       0.9478      2.00000
     24       0.9478      2.00000
     25       0.9585      2.00000
     26       0.9585      2.00000
     27       1.0177      2.00000
     28       1.0177      2.00000
     29      12.2082      0.00000
     30      12.2082      0.00000
     31      12.6036      0.00000
     32      12.6036      0.00000
     33      16.8266      0.00000
     34      16.8266      0.00000
     35      16.9161      0.00000
     36      16.9161      0.00000
     37      19.3103      0.00000
     38      19.3103      0.00000
     39      20.1208      0.00000
     40      20.1208      0.00000
     41      20.7009      0.00000
     42      20.7009      0.00000
     43      20.8115      0.00000
     44      20.8115      0.00000
     45      25.6304      0.00000
     46      25.6316      0.00000
     47      26.0247      0.00000
     48      26.0248      0.00000

 k-point    34 :       0.5000    0.5000    0.3750
  band No.  band energies     occupation
      1     -39.7063      2.00000
      2     -39.7063      2.00000
      3     -39.7063      2.00000
      4     -39.7063      2.00000
      5     -39.6327      2.00000
      6     -39.6327      2.00000
      7     -39.6327      2.00000
      8     -39.6327      2.00000
      9     -39.6303      2.00000
     10     -39.6303      2.00000
     11     -39.6303      2.00000
     12     -39.6303      2.00000
     13     -15.3198      2.00000
     14     -15.3198      2.00000
     15     -15.3198      2.00000
     16     -15.3198      2.00000
     17      -2.9660      2.00000
     18      -2.9660      2.00000
     19      -2.9660      2.00000
     20      -2.9660      2.00000
     21       0.8756      2.00000
     22       0.8756      2.00000
     23       0.8756      2.00000
     24       0.8756      2.00000
     25       1.0290      2.00000
     26       1.0290      2.00000
     27       1.0290      2.00000
     28       1.0290      2.00000
     29      12.2378      0.00000
     30      12.2378      0.00000
     31      12.2378      0.00000
     32      12.2378      0.00000
     33      16.9556      0.00000
     34      16.9556      0.00000
     35      16.9556      0.00000
     36      16.9556      0.00000
     37      20.0464      0.00000
     38      20.0464      0.00000
     39      20.0464      0.00000
     40      20.0464      0.00000
     41      20.6390      0.00000
     42      20.6390      0.00000
     43      20.6390      0.00000
     44      20.6390      0.00000
     45      25.9383      0.00000
     46      25.9446      0.00000
     47      25.9574      0.00000
     48      25.9599      0.00000

 k-point    35 :       0.5000    0.5000    0.5000
  band No.  band energies     occupation
      1     -39.7088      2.00000
      2     -39.7088      2.00000
      3     -39.7088      2.00000
      4     -39.7088      2.00000
      5     -39.6302      2.00000
      6     -39.6302      2.00000
      7     -39.6302      2.00000
      8     -39.6302      2.00000
      9     -39.6302      2.00000
     10     -39.6302      2.00000
     11     -39.6302      2.00000
     12     -39.6302      2.00000
     13     -15.3065      2.00000
     14     -15.3065      2.00000
     15     -15.3065      2.00000
     16     -15.3065      2.00000
     17      -3.0901      2.00000
     18      -3.0901      2.00000
     19      -3.0901      2.00000
     20      -3.0901      2.00000
     21       1.0289      2.00000
     22       1.0289      2.00000
     23       1.0289      2.00000
     24       1.0289      2.00000
     25       1.0289      2.00000
     26       1.0289      2.00000
     27       1.0289      2.00000
     28       1.0289      2.00000
     29      12.0476      0.00000
     30      12.0476      0.00000
     31      12.0476      0.00000
     32      12.0476      0.00000
     33      17.0410      0.00000
     34      17.0410      0.00000
     35      17.0410      0.00000
     36      17.0410      0.00000
     37      20.5108      0.00000
     38      20.5108      0.00000
     39      20.5108      0.00000
     40      20.5108      0.00000
     41      20.5108      0.00000
     42      20.5108      0.00000
     43      20.5108      0.00000
     44      20.5108      0.00000
     45      25.2553      0.00000
     46      25.2553      0.00000
     47      25.2553      0.00000
     48      25.2553      0.00000


--------------------------------------------------------------------------------------------------------


 soft charge-density along one line, spin component           1
         0         1         2         3         4         5         6         7         8         9
 total charge-density along one line

 pseudopotential strength for first ion, spin component:           1
-46.326  -0.000   0.000   4.288   0.000  -0.000   0.000  -0.000
 -0.000 -46.326  -0.000   0.000   4.288   0.000   0.000  -0.000
  0.000  -0.000 -46.326  -0.000   0.000   4.288  -0.000   0.000
  4.288   0.000  -0.000   5.255  -0.000   0.000  -0.000   0.000
  0.000   4.288   0.000  -0.000   5.255  -0.000   0.000  -0.000
 -0.000   0.000   4.288   0.000  -0.000   5.255   0.000  -0.000
  0.000   0.000  -0.000  -0.000   0.000   0.000   2.885 -10.407
 -0.000  -0.000   0.000   0.000  -0.000  -0.000 -10.407  43.027
 -0.000   0.000  -0.000   0.000   0.000   0.000   0.000   0.000
 -0.000  -0.000   0.000   0.000   0.000   0.000   0.000  -0.000
  0.000  -0.000   0.000  -0.000   0.000   0.000   0.000   0.000
  0.000  -0.000  -0.000   0.000   0.000   0.000   0.000  -0.000
  0.000  -0.000  -0.000  -0.000   0.000  -0.000   0.000   0.000
 total augmentation occupancy for first ion, spin component:           1
  2.003   0.000   0.000  -0.004  -0.000  -0.000   0.000   0.000   0.000   0.000   0.000   0.000   0.000
 -0.000   2.003  -0.000   0.000  -0.004  -0.000  -0.000  -0.000  -0.000  -0.000   0.000  -0.000   0.000
 -0.000   0.000   2.003   0.000  -0.000  -0.004   0.000   0.000   0.000  -0.000   0.000   0.000   0.000
 -0.004   0.000  -0.000   0.075  -0.000  -0.000   0.000   0.000   0.000  -0.000  -0.000   0.000  -0.000
 -0.000  -0.004  -0.000  -0.000   0.075  -0.000   0.000  -0.000  -0.000   0.000   0.000  -0.000   0.000
 -0.000  -0.000  -0.004  -0.000   0.000   0.075  -0.000   0.000   0.000  -0.000   0.000   0.000   0.000
 -0.000   0.000  -0.000  -0.000   0.000   0.000   0.843   0.019   0.000   0.000   0.000  -0.000   0.000
 -0.000  -0.000   0.000  -0.000   0.000   0.000   0.019   0.001  -0.000   0.000   0.000   0.000  -0.000
  0.000  -0.000   0.000  -0.000  -0.000   0.000   0.000   0.000   0.012   0.000   0.000   0.000  -0.000
  0.000  -0.000  -0.000  -0.000   0.000   0.000   0.000   0.000  -0.000   0.012   0.000  -0.000   0.000
  0.000  -0.000   0.000   0.000   0.000  -0.000   0.000   0.000   0.000   0.000   0.054   0.000  -0.000
  0.000  -0.000   0.000   0.000  -0.000   0.000   0.000   0.000  -0.000  -0.000   0.000   0.012  -0.000
  0.000   0.000  -0.000   0.000   0.000   0.000  -0.000   0.000   0.000   0.000  -0.000  -0.000   0.054


------------------------ aborting loop because EDIFF is reached ----------------------------------------


    FORLOC:  cpu time      0.0002: real time      0.0002
    FORHF :  cpu time    174.3890: real time    174.4034
    FORNL :  cpu time      0.0319: real time      0.0319
    STRESS:  cpu time      0.0843: real time      0.0844
    FORCOR:  cpu time      0.0158: real time      0.0160
    OFIELD:  cpu time      0.0000: real time      0.0001

  DFT-D2 method for vdW energy calculation
  -------------------------------------------------------------------

  Parameters of vdW forcefield:
         C6(Jnm^6/mol)     R0(A)
   -----------------------------
   Mg       0.630          1.243
   O        0.700          1.342

  vdW correction parametrized for the method           

  IVDW =   1
  VDW_RADIUS =    50.000 A
  VDW_S6 =     1.050
  VDW_SR =     1.000
  VDW_D =    20.000
  LVDW_EWALD = F

  Number of pair interactions contributing to vdW energy:  254768
  Edisp (eV):   -0.82151
    FORVDW:  cpu time      0.0269: real time      0.0269

  FORCE on cell =-STRESS in cart. coord.  units (eV):
  Direction    XX          YY          ZZ          XY          YZ          ZX
  --------------------------------------------------------------------------------------
  Alpha Z   280.05743   280.05743   280.05743
  Ewald   -1286.32546 -1286.32546 -1286.32546     0.00000     0.00000    -0.00000
  Hartree   408.78261   408.78261   408.78261    -0.00000    -0.00000    -0.00000
  E(xc)    -251.18612  -251.18612  -251.18612     0.00000    -0.00000    -0.00000
  Local     211.94453   211.94453   211.94453    -0.00000     0.00000     0.00000
  n-local  -146.59996  -147.41104  -146.92754     0.04713     0.05474     0.02928
  augment   111.62787   111.62787   111.62787    -0.00000     0.00000     0.00000
  Kinetic   917.16467   925.06317   927.80111    -2.54795    -2.52417    -1.54717
  Fock     -249.82012  -250.12323  -250.34693     0.05485     0.04445     0.02976
  vdW        -1.17494    -1.17494    -1.17494     0.00000     0.00000    -0.00000
  -------------------------------------------------------------------------------------
  Total      -0.00738    -0.00738    -0.00738    -0.00000    -0.00000     0.00000
  in kB      -0.15928    -0.15928    -0.15928    -0.00000    -0.00000     0.00000
  external pressure =       -0.16 kB  Pullay stress =        0.00 kB


 VOLUME and BASIS-vectors are now :
 -----------------------------------------------------------------------------
  energy-cutoff  :      600.00
  volume of cell :       74.22
      direct lattice vectors                 reciprocal lattice vectors
     4.202430997  0.000000000 -0.000000000     0.237957506  0.000000000 -0.000000000
    -0.000000000  4.202430997 -0.000000000    -0.000000000  0.237957506  0.000000000
     0.000000000  0.000000000  4.202430997     0.000000000  0.000000000  0.237957506

  length of vectors
     4.202430997  4.202430997  4.202430997     0.237957506  0.237957506  0.237957506


 FORCES acting on ions:
    Electron-Ion                     Ewald-Force                    Non-Local-Force
 -----------------------------------------------------------------------------------------------
   -.295E-13 -.318E-13 -.346E-13   0.263E-14 -.718E-14 -.949E-15   0.116E-22 0.662E-23 0.351E-23
   -.296E-13 0.397E-12 0.383E-12   0.273E-14 -.312E-14 0.643E-14   0.662E-23 -.165E-23 -.243E-23
   0.391E-12 -.339E-13 0.290E-11   0.884E-16 -.102E-13 0.635E-14   0.827E-23 -.465E-23 0.493E-23
   0.392E-12 0.948E-12 -.360E-12   0.188E-15 -.615E-14 -.173E-14   -.827E-23 -.165E-23 0.419E-23
   0.167E-12 -.262E-13 -.156E-11   -.159E-14 0.149E-14 -.484E-14   0.129E-25 0.207E-24 0.244E-24
   0.169E-12 0.127E-12 0.744E-12   -.130E-14 0.118E-13 0.704E-15   0.220E-24 0.181E-24 -.392E-25
   -.287E-13 -.285E-13 0.167E-12   -.676E-15 0.189E-14 0.747E-15   0.000E+00 0.181E-24 0.946E-25
   -.287E-13 0.169E-12 -.200E-13   -.383E-15 0.122E-13 -.531E-14   0.129E-25 0.155E-24 -.839E-25
 -----------------------------------------------------------------------------------------------
   0.102E-11 0.154E-11 0.226E-11   0.169E-14 0.804E-15 0.141E-14   0.184E-22 -.620E-24 0.104E-22


 POSITION                                       TOTAL-FORCE (eV/Angst)
 -----------------------------------------------------------------------------------
      0.00000      0.00000      0.00000        -0.000000     -0.000000     -0.000000
      0.00000      2.10122      2.10122        -0.000000      0.000000      0.000000
      2.10122      0.00000      2.10122         0.000000     -0.000000     -0.000000
      2.10122      2.10122      0.00000        -0.000000     -0.000000     -0.000000
      2.10122      0.00000      0.00000         0.000000     -0.000000     -0.000000
      2.10122      2.10122      2.10122         0.000000      0.000000      0.000000
      0.00000      0.00000      2.10122         0.000000     -0.000000      0.000000
      0.00000      2.10122      0.00000         0.000000      0.000000      0.000000
 -----------------------------------------------------------------------------------
    total drift:                                0.000000      0.000000      0.000000


--------------------------------------------------------------------------------------------------------



  FREE ENERGIE OF THE ION-ELECTRON SYSTEM (eV)
  ---------------------------------------------------
  free  energy   TOTEN  =       -55.90527671 eV

  energy  without entropy=      -55.90527671  energy(sigma->0) =      -55.90527671



--------------------------------------------------------------------------------------------------------


    POTLOK:  cpu time      0.4286: real time      0.4303


--------------------------------------------------------------------------------------------------------




--------------------------------------------------------------------------------------------------------



 reached required accuracy - stopping structural energy minimisation
     LOOP+:  cpu time   5935.1083: real time   5935.7375
    4ORBIT:  cpu time      0.0000: real time      0.0000

 total amount of memory used by VASP MPI-rank0    49003. kBytes
=======================================================================

   base      :      30000. kBytes
   nonl-proj :       4978. kBytes
   fftplans  :        487. kBytes
   grid      :        402. kBytes
   one-center:         16. kBytes
   HF        :         67. kBytes
   nonlr-proj:       2308. kBytes
   wavefun   :       1209. kBytes
   fock_wrk  :       9536. kBytes



 General timing and accounting informations for this job:
 ========================================================

                  Total CPU time used (sec):     5940.775
                            User time (sec):     5909.186
                          System time (sec):       31.589
                         Elapsed time (sec):     5943.314

                   Maximum memory used (kb):      130796.
                   Average memory used (kb):          N/A

                          Minor page faults:        63521
                          Major page faults:            0
                 Voluntary context switches:         5619
