 vasp.6.3.0 20Jan22 (build Apr  1 2022 16:44:48) complex
 executed on        HPECrayEX_GCC date 2023.01.23  21:56:37
 running  512 mpi-ranks, with    1 threads/rank
 distrk:  each k-point on  512 cores,    1 groups
 distr:  one band on NCORE=   8 cores,   64 groups


--------------------------------------------------------------------------------------------------------


 INCAR:
   SYSTEM = MgO-rocksalt
   ISMEAR = 0
   SIGMA = 0.05
   EDIFF = 1E-8
   ALGO = ALL
   ISTART = 0
   IBRION = 5
   POTIM = 0.01
   NFREE = 2
   ISYM = 0
   DIPOL = 0.5 0.5 0.5
   IDIPOL = 3
   LDIPOL = .TRUE.
   GGA = MK
   LUSE_VDW = .TRUE.
   PARAM1 = 0.1234
   PARAM2 = 0.711357
   ZAB_VDW = -1.8867
   AGGAC = 0.0
   ENCUT = 600
   PREC = Accurate
   LASPH = .TRUE.
   LREAL = .FALSE.
   ISPIN = 1
   NELM = 200
   NELMIN = 8
   NCORE = 8
   KPAR = 1
   LWAVE = .FALSE.
   LCHARG = .FALSE.

 POTCAR:    PAW_PBE C 08Apr2002
 POTCAR:    PAW_PBE O 08Apr2002
 POTCAR:    PAW_PBE Mg_pv 13Apr2007
 POTCAR:    PAW_PBE O 08Apr2002
 -----------------------------------------------------------------------------
|                                                                             |
|               ----> ADVICE to this user running VASP <----                  |
|                                                                             |
|     You have switched on vdW-DFT.                                           |
|     This routine was written and supplied by Jiri Klimes. We recommend      |
|     that you carefully read and cite the following publications:            |
|       J. Klimes, D.R. Bowler, A. Michelides                                 |
|          J. Phys.: Cond Matt. 22 022201 (2010)                              |
|       J. Klimes, D.R. Bowler, A. Michelides                                 |
|          Phys. Rev. B. 83, 195131 (2011)                                    |
|     and references therein.                                                 |
|                                                                             |
 -----------------------------------------------------------------------------

 POTCAR:    PAW_PBE C 08Apr2002
   SHA256 =  253f7b50bb8d59471dbedb8285d89021f4a42ed1a2c5d38a03a736e69125dd95 C/POTCAR
   COPYR  = (c) Copyright 08Apr2002 Georg Kresse
   COPYR  = This file is part of the software VASP. Any use, copying, and all other rights are regul
   COPYR  = If you do not have a valid VASP license, you may not use, copy or distribute this file.
   VRHFIN =C: s2p2
   LEXCH  = PE
   EATOM  =   147.1560 eV,   10.8157 Ry

   TITEL  = PAW_PBE C 08Apr2002
   LULTRA =        F    use ultrasoft PP ?
   IUNSCR =        1    unscreen: 0-lin 1-nonlin 2-no
   RPACOR =    1.200    partial core radius
   POMASS =   12.011; ZVAL   =    4.000    mass and valenz
   RCORE  =    1.500    outmost cutoff radius
   RWIGS  =    1.630; RWIGS  =    0.863    wigner-seitz radius (au A)
   ENMAX  =  400.000; ENMIN  =  300.000 eV
   ICORE  =        2    local potential
   LCOR   =        T    correct aug charges
   LPAW   =        T    paw PP
   EAUG   =  644.873
   DEXC   =    0.000
   RMAX   =    1.529    core radius for proj-oper
   RAUG   =    1.300    factor for augmentation sphere
   RDEP   =    1.501    radius for radial grids
   RDEPT  =    1.300    core radius for aug-charge

   Atomic configuration
    4 entries
     n  l   j            E        occ.
     1  0  0.50      -273.3789   2.0000
     2  0  0.50       -13.7508   2.0000
     2  1  0.50        -5.2854   2.0000
     3  2  1.50        -5.4423   0.0000
   Description
     l       E           TYP  RCUT    TYP  RCUT
     0    -13.7508458     23  1.200
     0     -8.2022199     23  1.200
     1     -5.2854383     23  1.500
     1     34.0145650     23  1.500
     2     -5.4423304      7  1.500
  local pseudopotential read in
  partial core-charges read in
  partial kinetic energy density read in
  atomic valenz-charges read in
  non local Contribution for L=           0  read in
    real space projection operators read in
  non local Contribution for L=           0  read in
    real space projection operators read in
  non local Contribution for L=           1  read in
    real space projection operators read in
  non local Contribution for L=           1  read in
    real space projection operators read in
    PAW grid and wavefunctions read in

   number of l-projection  operators is LMAX  =           4
   number of lm-projection operators is LMMAX =           8

 POTCAR:    PAW_PBE O 08Apr2002
   SHA256 =  818f92134a0a090dccd8ba1447fa70422a3b330e708bb4f08108d8ae51209ddf O/POTCAR
   COPYR  = (c) Copyright 08Apr2002 Georg Kresse
   COPYR  = This file is part of the software VASP. Any use, copying, and all other rights are regul
   COPYR  = If you do not have a valid VASP license, you may not use, copy or distribute this file.
   VRHFIN =O: s2p4
   LEXCH  = PE
   EATOM  =   432.3788 eV,   31.7789 Ry

   TITEL  = PAW_PBE O 08Apr2002
   LULTRA =        F    use ultrasoft PP ?
   IUNSCR =        1    unscreen: 0-lin 1-nonlin 2-no
   RPACOR =    1.200    partial core radius
   POMASS =   16.000; ZVAL   =    6.000    mass and valenz
   RCORE  =    1.520    outmost cutoff radius
   RWIGS  =    1.550; RWIGS  =    0.820    wigner-seitz radius (au A)
   ENMAX  =  400.000; ENMIN  =  300.000 eV
   ICORE  =        2    local potential
   LCOR   =        T    correct aug charges
   LPAW   =        T    paw PP
   EAUG   =  605.392
   DEXC   =    0.000
   RMAX   =    1.553    core radius for proj-oper
   RAUG   =    1.300    factor for augmentation sphere
   RDEP   =    1.550    radius for radial grids
   RDEPT  =    1.329    core radius for aug-charge

   Atomic configuration
    4 entries
     n  l   j            E        occ.
     1  0  0.50      -514.6923   2.0000
     2  0  0.50       -23.9615   2.0000
     2  1  0.50        -9.0305   4.0000
     3  2  1.50        -9.5241   0.0000
   Description
     l       E           TYP  RCUT    TYP  RCUT
     0    -23.9615318     23  1.200
     0     -9.5240782     23  1.200
     1     -9.0304911     23  1.520
     1      8.1634956     23  1.520
     2     -9.5240782      7  1.500
  local pseudopotential read in
  partial core-charges read in
  partial kinetic energy density read in
  kinetic energy density of atom read in
  atomic valenz-charges read in
  non local Contribution for L=           0  read in
    real space projection operators read in
  non local Contribution for L=           0  read in
    real space projection operators read in
  non local Contribution for L=           1  read in
    real space projection operators read in
  non local Contribution for L=           1  read in
    real space projection operators read in
    PAW grid and wavefunctions read in

   number of l-projection  operators is LMAX  =           4
   number of lm-projection operators is LMMAX =           8

 POTCAR:    PAW_PBE Mg_pv 13Apr2007
   SHA256 =  f474ac0dd33840b9ae76c01d57fea79fdf77cdfbb07d5ade72c65f83c709b62b Mg_pv/POTCAR
   COPYR  = (c) Copyright 13Apr2007 Georg Kresse
   COPYR  = This file is part of the software VASP. Any use, copying, and all other rights are regul
   COPYR  = If you do not have a valid VASP license, you may not use, copy or distribute this file.
   VRHFIN =Mg: p6s2
   LEXCH  = PE
   EATOM  =  1056.7344 eV,   77.6678 Ry

   TITEL  = PAW_PBE Mg_pv 13Apr2007
   LULTRA =        F    use ultrasoft PP ?
   IUNSCR =        1    unscreen: 0-lin 1-nonlin 2-no
   RPACOR =    1.500    partial core radius
   POMASS =   24.305; ZVAL   =    8.000    mass and valenz
   RCORE  =    2.000    outmost cutoff radius
   RWIGS  =    2.000; RWIGS  =    1.058    wigner-seitz radius (au A)
   ENMAX  =  403.929; ENMIN  =  302.947 eV
   RCLOC  =    1.506    cutoff for local pot
   LCOR   =        T    correct aug charges
   LPAW   =        T    paw PP
   EAUG   =  758.780
   DEXC   =    0.000
   RMAX   =    2.045    core radius for proj-oper
   RAUG   =    1.300    factor for augmentation sphere
   RDEP   =    2.025    radius for radial grids
   RDEPT  =    1.557    core radius for aug-charge

   Atomic configuration
    5 entries
     n  l   j            E        occ.
     1  0  0.50     -1259.6230   2.0000
     2  0  0.50       -79.8442   2.0000
     2  1  1.50       -46.6121   6.0000
     3  0  0.50        -4.7055   2.0000
     3  2  1.50        -1.3606   0.0000
   Description
     l       E           TYP  RCUT    TYP  RCUT
     1    -46.6121073     23  1.600
     1      2.7211652     23  1.600
     0     -4.7054661     23  2.000
     0     61.2262170     23  2.000
     2     -1.3605826     23  2.000
  local pseudopotential read in
  partial core-charges read in
  partial kinetic energy density read in
  atomic valenz-charges read in
  non local Contribution for L=           1  read in
    real space projection operators read in
  non local Contribution for L=           1  read in
    real space projection operators read in
  non local Contribution for L=           0  read in
    real space projection operators read in
  non local Contribution for L=           0  read in
    real space projection operators read in
  non local Contribution for L=           2  read in
    real space projection operators read in
    PAW grid and wavefunctions read in

   number of l-projection  operators is LMAX  =           5
   number of lm-projection operators is LMMAX =          13

 POTCAR:    PAW_PBE O 08Apr2002
   SHA256 =  818f92134a0a090dccd8ba1447fa70422a3b330e708bb4f08108d8ae51209ddf O/POTCAR
   COPYR  = (c) Copyright 08Apr2002 Georg Kresse
   COPYR  = This file is part of the software VASP. Any use, copying, and all other rights are regul
   COPYR  = If you do not have a valid VASP license, you may not use, copy or distribute this file.
   VRHFIN =O: s2p4
   LEXCH  = PE
   EATOM  =   432.3788 eV,   31.7789 Ry

   TITEL  = PAW_PBE O 08Apr2002
   LULTRA =        F    use ultrasoft PP ?
   IUNSCR =        1    unscreen: 0-lin 1-nonlin 2-no
   RPACOR =    1.200    partial core radius
   POMASS =   16.000; ZVAL   =    6.000    mass and valenz
   RCORE  =    1.520    outmost cutoff radius
   RWIGS  =    1.550; RWIGS  =    0.820    wigner-seitz radius (au A)
   ENMAX  =  400.000; ENMIN  =  300.000 eV
   ICORE  =        2    local potential
   LCOR   =        T    correct aug charges
   LPAW   =        T    paw PP
   EAUG   =  605.392
   DEXC   =    0.000
   RMAX   =    1.553    core radius for proj-oper
   RAUG   =    1.300    factor for augmentation sphere
   RDEP   =    1.550    radius for radial grids
   RDEPT  =    1.329    core radius for aug-charge

   Atomic configuration
    4 entries
     n  l   j            E        occ.
     1  0  0.50      -514.6923   2.0000
     2  0  0.50       -23.9615   2.0000
     2  1  0.50        -9.0305   4.0000
     3  2  1.50        -9.5241   0.0000
   Description
     l       E           TYP  RCUT    TYP  RCUT
     0    -23.9615318     23  1.200
     0     -9.5240782     23  1.200
     1     -9.0304911     23  1.520
     1      8.1634956     23  1.520
     2     -9.5240782      7  1.500
  local pseudopotential read in
  partial core-charges read in
  partial kinetic energy density read in
  kinetic energy density of atom read in
  atomic valenz-charges read in
  non local Contribution for L=           0  read in
    real space projection operators read in
  non local Contribution for L=           0  read in
    real space projection operators read in
  non local Contribution for L=           1  read in
    real space projection operators read in
  non local Contribution for L=           1  read in
    real space projection operators read in
    PAW grid and wavefunctions read in

   number of l-projection  operators is LMAX  =           4
   number of lm-projection operators is LMMAX =           8

 -----------------------------------------------------------------------------
|                                                                             |
|               ----> ADVICE to this user running VASP <----                  |
|                                                                             |
|     You have a (more or less) 'large supercell' and for larger cells it     |
|     might be more efficient to use real-space projection operators.         |
|     Therefore, try LREAL= Auto in the INCAR file.                           |
|     Mind: For very accurate calculation, you might also keep the            |
|     reciprocal projection scheme (i.e. LREAL=.FALSE.).                      |
|                                                                             |
 -----------------------------------------------------------------------------

 -----------------------------------------------------------------------------
|                                                                             |
|               ----> ADVICE to this user running VASP <----                  |
|                                                                             |
|     You enforced a specific xc type in the INCAR file but a different       |
|     type was found in the POTCAR file.                                      |
|     I HOPE YOU KNOW WHAT YOU ARE DOING!                                     |
|                                                                             |
 -----------------------------------------------------------------------------

  PAW_PBE C 08Apr2002                   :
 energy of atom  1       EATOM= -147.1560
 kinetic energy error for atom=    0.0057 (will be added to EATOM!!)
  PAW_PBE O 08Apr2002                   :
 energy of atom  2       EATOM= -432.3788
 kinetic energy error for atom=    0.0168 (will be added to EATOM!!)
  PAW_PBE Mg_pv 13Apr2007               :
 energy of atom  3       EATOM=-1056.7344
 kinetic energy error for atom=    0.0221 (will be added to EATOM!!)
  PAW_PBE O 08Apr2002                   :
 energy of atom  4       EATOM= -432.3788
 kinetic energy error for atom=    0.0168 (will be added to EATOM!!)


 POSCAR:  C  O Mg  O
  positions in direct lattice
  No initial velocities read in
 exchange correlation table for  LEXCH =       43
   RHO(1)=    0.500       N(1)  =     2000
   RHO(2)=  100.500       N(2)  =     4000



--------------------------------------------------------------------------------------------------------


 ion  position               nearest neighbor table
   1  0.500  0.500  0.763-   2 1.14
   2  0.500  0.500  0.817-   1 1.14
   3  0.250  0.000  0.352-  35 2.11  37 2.11  38 2.11  45 2.11  54 2.11
   4  0.500  0.250  0.352-  36 2.11  37 2.11  38 2.11  46 2.11  53 2.11
   5  0.250  0.250  0.451-  37 2.11  36 2.11  35 2.11  43 2.11  52 2.11  41 2.11
   6  0.500  0.000  0.451-  38 2.11  36 2.11  35 2.11  44 2.11  51 2.11  42 2.11
   7  0.250  0.000  0.550-  42 2.11  41 2.11  49 2.11  58 2.11  35 2.12  39 2.14
   8  0.500  0.250  0.550-  50 2.11  41 2.11  57 2.11  42 2.11  36 2.12  40 2.14
   9  0.250  0.250  0.648-  41 2.10  39 2.11  56 2.11  47 2.11  40 2.11
  10  0.500  0.000  0.648-  40 2.10  48 2.10  42 2.10  39 2.11  55 2.11
  11  0.250  0.500  0.352-  43 2.11  37 2.11  45 2.11  46 2.11  62 2.11
  12  0.500  0.750  0.352-  44 2.11  38 2.11  45 2.11  46 2.11  61 2.11
  13  0.250  0.750  0.451-  45 2.11  43 2.11  44 2.11  35 2.11  60 2.11  49 2.11
  14  0.500  0.500  0.451-  46 2.11  43 2.11  44 2.11  36 2.11  59 2.11  50 2.12
  15  0.250  0.500  0.550-  50 2.11  49 2.11  41 2.11  66 2.11  43 2.12  47 2.14
  16  0.500  0.750  0.550-  50 2.11  49 2.11  65 2.11  42 2.11  44 2.12  48 2.14
  17  0.250  0.750  0.648-  49 2.10  39 2.11  64 2.11  47 2.11  48 2.11
  18  0.500  0.500  0.651-  40 2.12  47 2.12  48 2.12  63 2.12  50 2.14
  19  0.750  0.000  0.352-  51 2.11  38 2.11  53 2.11  54 2.11  61 2.11
  20  0.000  0.250  0.352-  52 2.11  37 2.11  53 2.11  54 2.11  62 2.11
  21  0.750  0.250  0.451-  53 2.11  51 2.11  52 2.11  36 2.11  59 2.11  57 2.11
  22  0.000  0.000  0.451-  54 2.11  51 2.11  52 2.11  35 2.11  60 2.11  58 2.11
  23  0.750  0.000  0.550-  42 2.11  57 2.11  65 2.11  58 2.11  51 2.12  55 2.14
  24  0.000  0.250  0.550-  66 2.11  57 2.11  41 2.11  58 2.11  52 2.12  56 2.14
  25  0.750  0.250  0.648-  57 2.10  56 2.11  55 2.11  40 2.11  63 2.11
  26  0.000  0.000  0.648-  58 2.10  55 2.11  56 2.11  39 2.11  64 2.11
  27  0.750  0.500  0.352-  59 2.11  53 2.11  46 2.11  61 2.11  62 2.11
  28  0.000  0.750  0.352-  60 2.11  54 2.11  45 2.11  61 2.11  62 2.11
  29  0.750  0.750  0.451-  61 2.11  51 2.11  59 2.11  60 2.11  44 2.11  65 2.11
  30  0.000  0.500  0.451-  62 2.11  52 2.11  59 2.11  60 2.11  43 2.11  66 2.11
  31  0.750  0.500  0.550-  50 2.11  57 2.11  65 2.11  66 2.11  59 2.12  63 2.14
  32  0.000  0.750  0.550-  66 2.11  65 2.11  49 2.11  58 2.11  60 2.12  64 2.14
  33  0.750  0.750  0.648-  65 2.10  64 2.11  55 2.11  48 2.11  63 2.11
  34  0.000  0.500  0.648-  47 2.10  63 2.10  66 2.10  64 2.11  56 2.11
  35  0.250  0.000  0.451-   3 2.11   5 2.11   6 2.11  13 2.11  22 2.11   7 2.12
  36  0.500  0.250  0.451-   4 2.11   5 2.11   6 2.11  14 2.11  21 2.11   8 2.12
  37  0.250  0.250  0.352-   5 2.11   4 2.11   3 2.11  11 2.11  20 2.11
  38  0.500  0.000  0.352-   6 2.11   4 2.11   3 2.11  12 2.11  19 2.11
  39  0.250  0.000  0.650-   9 2.11  17 2.11  26 2.11  10 2.11   7 2.14
  40  0.500  0.249  0.650-  10 2.10   9 2.11  25 2.11  18 2.12   8 2.14
  41  0.250  0.250  0.550-   9 2.10   7 2.11  24 2.11  15 2.11   8 2.11   5 2.11
  42  0.500  0.000  0.550-  10 2.10   7 2.11  23 2.11   6 2.11  16 2.11   8 2.11
  43  0.250  0.500  0.451-  11 2.11   5 2.11  13 2.11  14 2.11  30 2.11  15 2.12
  44  0.500  0.750  0.451-  12 2.11   6 2.11  13 2.11  14 2.11  29 2.11  16 2.12
  45  0.250  0.750  0.352-  13 2.11  11 2.11  12 2.11   3 2.11  28 2.11
  46  0.500  0.500  0.352-  14 2.11  11 2.11  12 2.11   4 2.11  27 2.11
  47  0.249  0.500  0.650-  34 2.10  17 2.11   9 2.11  18 2.12  15 2.14
  48  0.500  0.751  0.650-  10 2.10  17 2.11  33 2.11  18 2.12  16 2.14
  49  0.250  0.750  0.550-  17 2.10   7 2.11  32 2.11  15 2.11  16 2.11  13 2.11
  50  0.500  0.500  0.550-   8 2.11  15 2.11  16 2.11  31 2.11  14 2.12  18 2.14
  51  0.750  0.000  0.451-  19 2.11   6 2.11  21 2.11  22 2.11  29 2.11  23 2.12
  52  0.000  0.250  0.451-  20 2.11   5 2.11  21 2.11  22 2.11  30 2.11  24 2.12
  53  0.750  0.250  0.352-  21 2.11  19 2.11  20 2.11   4 2.11  27 2.11
  54  0.000  0.000  0.352-  22 2.11  19 2.11  20 2.11   3 2.11  28 2.11
  55  0.750  0.000  0.650-  25 2.11  33 2.11  26 2.11  10 2.11  23 2.14
  56  0.000  0.250  0.650-   9 2.11  25 2.11  26 2.11  34 2.11  24 2.14
  57  0.750  0.250  0.550-  25 2.10  24 2.11  23 2.11   8 2.11  31 2.11  21 2.11
  58  0.000  0.000  0.550-  26 2.10  23 2.11  24 2.11   7 2.11  32 2.11  22 2.11
  59  0.750  0.500  0.451-  27 2.11  21 2.11  14 2.11  29 2.11  30 2.11  31 2.12
  60  0.000  0.750  0.451-  28 2.11  22 2.11  13 2.11  29 2.11  30 2.11  32 2.12
  61  0.750  0.750  0.352-  29 2.11  19 2.11  27 2.11  28 2.11  12 2.11
  62  0.000  0.500  0.352-  30 2.11  20 2.11  27 2.11  28 2.11  11 2.11
  63  0.751  0.500  0.650-  34 2.10  33 2.11  25 2.11  18 2.12  31 2.14
  64  0.000  0.750  0.650-  17 2.11  33 2.11  26 2.11  34 2.11  32 2.14
  65  0.750  0.750  0.550-  33 2.10  32 2.11  23 2.11  16 2.11  31 2.11  29 2.11
  66  0.000  0.500  0.550-  34 2.10  32 2.11  24 2.11  30 2.11  15 2.11  31 2.11


IMPORTANT INFORMATION: All symmetrisations will be switched off!
NOSYMM: (Re-)initialisation of all symmetry stuff for point group C_1.


----------------------------------------------------------------------------------------

                                     Primitive cell

  volume of cell :    1519.6535

  direct lattice vectors                    reciprocal lattice vectors
     8.440582262  0.000000000  0.000000000     0.118475239  0.000000000  0.000000000
     0.000000000  8.440582262  0.000000000     0.000000000  0.118475239  0.000000000
     0.000000000  0.000000000 21.330436697     0.000000000  0.000000000  0.046881366

  length of vectors
     8.440582262  8.440582262 21.330436697     0.118475239  0.118475239  0.046881366

  position of ions in fractional coordinates (direct lattice)
     0.500000000  0.500000000  0.763496057
     0.500000000  0.500000000  0.817025071
     0.250000000  0.000000000  0.351610242
     0.500000000  0.250000000  0.351610242
     0.250000000  0.250000000  0.450536747
     0.500000000  0.000000000  0.450536747
     0.250096034  0.000000000  0.549803915
     0.500000000  0.250478300  0.550037642
     0.249708419  0.249708419  0.647948439
     0.500000000  0.000000000  0.648058606
     0.250000000  0.500000000  0.351610242
     0.500000000  0.750000000  0.351610242
     0.250000000  0.750000000  0.450536747
     0.500000000  0.500000000  0.450536747
     0.250478300  0.500000000  0.550037642
     0.500000000  0.749521700  0.550037642
     0.249708419  0.750291581  0.647948439
     0.500000000  0.500000000  0.650645311
     0.750000000  0.000000000  0.351610242
     0.000000000  0.250000000  0.351610242
     0.750000000  0.250000000  0.450536747
     0.000000000  0.000000000  0.450536747
     0.749903966  0.000000000  0.549803915
     0.000000000  0.250096034  0.549803915
     0.750291581  0.249708419  0.647948439
     0.000000000  0.000000000  0.648120387
     0.750000000  0.500000000  0.351610242
     0.000000000  0.750000000  0.351610242
     0.750000000  0.750000000  0.450536747
     0.000000000  0.500000000  0.450536747
     0.749521700  0.500000000  0.550037642
     0.000000000  0.749903966  0.549803915
     0.750291581  0.750291581  0.647948439
     0.000000000  0.500000000  0.648058606
     0.250000000  0.000000000  0.450536747
     0.500000000  0.250000000  0.450536747
     0.250000000  0.250000000  0.351610242
     0.500000000  0.000000000  0.351610242
     0.249730657  0.000000000  0.650054926
     0.500000000  0.248706670  0.650130102
     0.249982468  0.249982468  0.549624565
     0.500000000  0.000000000  0.549547783
     0.250000000  0.500000000  0.450536747
     0.500000000  0.750000000  0.450536747
     0.250000000  0.750000000  0.351610242
     0.500000000  0.500000000  0.351610242
     0.248706670  0.500000000  0.650130102
     0.500000000  0.751293330  0.650130102
     0.249982468  0.750017532  0.549624565
     0.500000000  0.500000000  0.550094974
     0.750000000  0.000000000  0.450536747
     0.000000000  0.250000000  0.450536747
     0.750000000  0.250000000  0.351610242
     0.000000000  0.000000000  0.351610242
     0.750269343  0.000000000  0.650054926
     0.000000000  0.249730657  0.650054926
     0.750017532  0.249982468  0.549624565
     0.000000000  0.000000000  0.549558333
     0.750000000  0.500000000  0.450536747
     0.000000000  0.750000000  0.450536747
     0.750000000  0.750000000  0.351610242
     0.000000000  0.500000000  0.351610242
     0.751293330  0.500000000  0.650130102
     0.000000000  0.750269343  0.650054926
     0.750017532  0.750017532  0.549624565
     0.000000000  0.500000000  0.549547783

  ion indices of the primitive-cell ions
   primitive index   ion index
                 1           1
                 2           2
                 3           3
                 4           4
                 5           5
                 6           6
                 7           7
                 8           8
                 9           9
                10          10
                11          11
                12          12
                13          13
                14          14
                15          15
                16          16
                17          17
                18          18
                19          19
                20          20
                21          21
                22          22
                23          23
                24          24
                25          25
                26          26
                27          27
                28          28
                29          29
                30          30
                31          31
                32          32
                33          33
                34          34
                35          35
                36          36
                37          37
                38          38
                39          39
                40          40
                41          41
                42          42
                43          43
                44          44
                45          45
                46          46
                47          47
                48          48
                49          49
                50          50
                51          51
                52          52
                53          53
                54          54
                55          55
                56          56
                57          57
                58          58
                59          59
                60          60
                61          61
                62          62
                63          63
                64          64
                65          65
                66          66

----------------------------------------------------------------------------------------



 KPOINTS: pymatgen v2020.8.13 with grid density =

Automatic generation of k-mesh.
 Grid dimensions read from file:
 generate k-points for:    2    2    1

 Generating k-lattice:

  Cartesian coordinates                     Fractional coordinates (reciprocal lattice)
     0.059237619  0.000000000  0.000000000     0.500000000  0.000000000  0.000000000
     0.000000000  0.059237619  0.000000000     0.000000000  0.500000000  0.000000000
     0.000000000  0.000000000  0.046881366     0.000000000  0.000000000  1.000000000

  Length of vectors
     0.059237619  0.059237619  0.046881366

  Shift w.r.t. Gamma in fractional coordinates (k-lattice)
     0.000000000  0.000000000  0.000000000


 Subroutine IBZKPT returns following result:
 ===========================================

 Found      4 irreducible k-points:

 Following reciprocal coordinates:
            Coordinates               Weight
  0.000000  0.000000  0.000000      1.000000
  0.500000  0.000000  0.000000      1.000000
  0.000000  0.500000  0.000000      1.000000
  0.500000  0.500000  0.000000      1.000000

 Following cartesian coordinates:
            Coordinates               Weight
  0.000000  0.000000  0.000000      1.000000
  0.059238  0.000000  0.000000      1.000000
  0.000000  0.059238  0.000000      1.000000
  0.059238  0.059238  0.000000      1.000000


 Subroutine IBZKPT_HF returns following result:
 ==============================================

 Found      4 k-points in 1st BZ
 the following      4 k-points will be used (e.g. in the exchange kernel)
 Following reciprocal coordinates:   # in IRBZ
  0.000000  0.000000  0.000000    0.25000000   1 t-inv F
  0.500000  0.000000  0.000000    0.25000000   2 t-inv F
  0.000000  0.500000  0.000000    0.25000000   3 t-inv F
  0.500000  0.500000  0.000000    0.25000000   4 t-inv F


--------------------------------------------------------------------------------------------------------




 Dimension of arrays:
   k-points           NKPTS =      4   k-points in BZ     NKDIM =      4   number of bands    NBANDS=    320
   number of dos      NEDOS =    301   number of ions     NIONS =     66
   non local maximal  LDIM  =      5   non local SUM 2l+1 LMDIM =     13
   total plane-waves  NPLWV = 882000
   max r-space proj   IRMAX =      1   max aug-charges    IRDMAX=  11637
   dimension x,y,z NGX =    70 NGY =   70 NGZ =  180
   dimension x,y,z NGXF=   140 NGYF=  140 NGZF=  360
   support grid    NGXF=   140 NGYF=  140 NGZF=  360
   ions per type =               1   1  32  32
   NGX,Y,Z   is equivalent  to a cutoff of  13.79, 13.79, 14.03 a.u.
   NGXF,Y,Z  is equivalent  to a cutoff of  27.57, 27.57, 28.06 a.u.

 SYSTEM =  MgO-rocksalt
 POSCAR =   C  O Mg  O

 Startparameter for this run:
   NWRITE =      2    write-flag & timer
   PREC   = accura    normal or accurate (medium, high low for compatibility)
   ISTART =      0    job   : 0-new  1-cont  2-samecut
   ICHARG =      2    charge: 1-file 2-atom 10-const
   ISPIN  =      1    spin polarized calculation?
   LNONCOLLINEAR =      F non collinear calculations
   LSORBIT =      F    spin-orbit coupling
   INIWAV =      1    electr: 0-lowe 1-rand  2-diag
   LASPH  =      T    aspherical Exc in radial PAW
 Electronic Relaxation 1
   ENCUT  =  600.0 eV  44.10 Ry    6.64 a.u.  16.86 16.86 42.60*2*pi/ulx,y,z
   ENINI  =  600.0     initial cutoff
   ENAUG  =  758.8 eV  augmentation charge cutoff
   NELM   =    200;   NELMIN=  8; NELMDL= -5     # of ELM steps
   EDIFF  = 0.1E-07   stopping-criterion for ELM
   LREAL  =      F    real-space projection
   NLSPLINE    = F    spline interpolate recip. space projectors
   LCOMPAT=      F    compatible to vasp.4.4
   GGA_COMPAT  = T    GGA compatible to vasp.4.4-vasp.4.6
   LMAXPAW     = -100 max onsite density
   LMAXMIX     =    2 max onsite mixed and CHGCAR
   VOSKOWN=      0    Vosko Wilk Nusair interpolation
   ROPT   =    0.00000   0.00000   0.00000   0.00000
 Ionic relaxation
   EDIFFG = 0.1E-06   stopping-criterion for IOM
   NSW    =    829    number of steps for IOM
   NBLOCK =      1;   KBLOCK =    829    inner block; outer block
   IBRION =      5    ionic relax: 0-MD 1-quasi-New 2-CG
   NFREE  =      2    steps in history (QN), initial steepest desc. (CG)
   ISIF   =      2    stress and relaxation
   IWAVPR =     11    prediction:  0-non 1-charg 2-wave 3-comb
   ISYM   =      0    0-nonsym 1-usesym 2-fastsym
   LCORR  =      T    Harris-Foulkes like correction to forces

   POTIM  = 0.0100    time-step for ionic-motion
   TEIN   =    0.0    initial temperature
   TEBEG  =    0.0;   TEEND  =   0.0 temperature during run
   SMASS  =  -3.00    Nose mass-parameter (am)
   estimated Nose-frequenzy (Omega)   =  0.10E-29 period in steps = 0.63E+48 mass=  -0.163E-26a.u.
   SCALEE = 1.0000    scale energy and forces
   NPACO  =    256;   APACO  = 10.0  distance and # of slots for P.C.
   PSTRESS=    0.0 pullay stress

  Mass of Ions in am
   POMASS =  12.01 16.00 24.30 16.00
  Ionic Valenz
   ZVAL   =   4.00  6.00  8.00  6.00
  Atomic Wigner-Seitz radii
   RWIGS  =  -1.00 -1.00 -1.00 -1.00
  virtual crystal weights
   VCA    =   1.00  1.00  1.00  1.00
   NELECT =     458.0000    total number of electrons
   NUPDOWN=      -1.0000    fix difference up-down

 DOS related values:
   EMIN   =  10.00;   EMAX   =-10.00  energy-range for DOS
   EFERMI =   0.00
   ISMEAR =     0;   SIGMA  =   0.05  broadening in eV -4-tet -1-fermi 0-gaus

 Electronic relaxation 2 (details)
   IALGO  =     58    algorithm
   LDIAG  =      T    sub-space diagonalisation (order eigenvalues)
   LSUBROT=      F    optimize rotation matrix (better conditioning)
   TURBO    =      0    0=normal 1=particle mesh
   IRESTART =      0    0=no restart 2=restart with 2 vectors
   NREBOOT  =      0    no. of reboots
   NMIN     =      0    reboot dimension
   EREF     =   0.00    reference energy to select bands
   IMIX   =      4    mixing-type and parameters
     AMIX     =   0.40;   BMIX     =  1.00
     AMIX_MAG =   1.60;   BMIX_MAG =  1.00
     AMIN     =   0.10
     WC   =   100.;   INIMIX=   1;  MIXPRE=   1;  MAXMIX= -45

 Intra band minimization:
   WEIMIN = 0.0010     energy-eigenvalue tresh-hold
   EBREAK =  0.78E-11  absolut break condition
   DEPER  =   0.30     relativ break condition

   TIME   =   0.40     timestep for ELM

  volume/ion in A,a.u.               =      23.03       155.38
  Fermi-wavevector in a.u.,A,eV,Ry     =   1.097611  2.074184 16.391619  1.204750
  Thomas-Fermi vector in A             =   2.233974

 Write flags
   LWAVE        =      F    write WAVECAR
   LDOWNSAMPLE  =      F    k-point downsampling of WAVECAR
   LCHARG       =      F    write CHGCAR
   LVTOT        =      F    write LOCPOT, total local potential
   LVHAR        =      F    write LOCPOT, Hartree potential only
   LELF         =      F    write electronic localiz. function (ELF)
   LORBIT       =      0    0 simple, 1 ext, 2 COOP (PROOUT), +10 PAW based schemes


 Dipole corrections
   LMONO  =      F    monopole corrections only (constant potential shift)
   LDIPOL =      T    correct potential (dipole corrections)
   IDIPOL =      3    1-x, 2-y, 3-z, 4-all directions
   EPSILON=  1.0000000 bulk dielectric constant

 Exchange correlation treatment:
   GGA     =    MK    GGA type
   LEXCH   =    43    internal setting for exchange type
   LIBXC   =     F    Libxc
   VOSKOWN =     0    Vosko Wilk Nusair interpolation
   LHFCALC =     F    Hartree Fock is set to
   LHFONE  =     F    Hartree Fock one center treatment
   AEXX    =    0.0000 exact exchange contribution

 vdW DFT:
   LUSE_VDW   =     T    switch on vdW DFT
   Zab_VDW    =******    correlation parameter
   PARAM1     =0.1234
   PARAM2     =0.7114
   PARAM3     =0.0000
   -- rVV10 --
   BPARAM     = 6.3000
   CPARAM     = 0.0093

 Linear response parameters
   LEPSILON=     F    determine dielectric tensor
   LRPA    =     F    only Hartree local field effects (RPA)
   LNABLA  =     F    use nabla operator in PAW spheres
   LVEL    =     F    velocity operator in full k-point grid
   CSHIFT  =0.1000    complex shift for real part using Kramers Kronig
   OMEGAMAX=  -1.0    maximum frequency
   DEG_THRESHOLD= 0.2000000E-02 threshold for treating states as degnerate
   RTIME   =   -0.100 relaxation time in fs
  (WPLASMAI=    0.000 imaginary part of plasma frequency in eV, 0.658/RTIME)
   DFIELD  = 0.0000000 0.0000000 0.0000000 field for delta impulse in time

  Optional k-point grid parameters
   LKPOINTS_OPT  =     F    use optional k-point grid
   KPOINTS_OPT_MODE=     1    mode for optional k-point grid

 Orbital magnetization related:
   ORBITALMAG=     F  switch on orbital magnetization
   LCHIMAG   =     F  perturbation theory with respect to B field
   DQ        =  0.001000  dq finite difference perturbation B field
   LLRAUG    =     F  two centre corrections for induced B field



--------------------------------------------------------------------------------------------------------


 finite differences
   using selective dynamics as specified on POSCAR
 charge density and potential will be updated during run
 non-spin polarized calculation
 Conjugate gradient for all bands (Freysoldt, et al. PRB 79, 241103 (2009))
 preconditioned conjugated gradient
 perform sub-space diagonalisation
    before iterative eigenvector-optimisation
 modified Broyden-mixing scheme, WC =      100.0
 initial mixing is a Kerker type mixing with AMIX =  0.4000 and BMIX =      1.0000
 Hartree-type preconditioning will be used
 using additional bands           91
 reciprocal scheme for non local part
 use partial core corrections
 no Harris-corrections to forces
 use gradient corrections
 use of overlap-Matrix (Vanderbilt PP)
 Gauss-broadening in eV      SIGMA  =   0.05


--------------------------------------------------------------------------------------------------------


  energy-cutoff  :      600.00
  volume of cell :     1519.65
      direct lattice vectors                 reciprocal lattice vectors
     8.440582262  0.000000000  0.000000000     0.118475239  0.000000000  0.000000000
     0.000000000  8.440582262  0.000000000     0.000000000  0.118475239  0.000000000
     0.000000000  0.000000000 21.330436697     0.000000000  0.000000000  0.046881366

  length of vectors
     8.440582262  8.440582262 21.330436697     0.118475239  0.118475239  0.046881366



 k-points in units of 2pi/SCALE and weight: pymatgen v2020.8.13 with grid density =
   0.00000000  0.00000000  0.00000000       0.250
   0.05923762  0.00000000  0.00000000       0.250
   0.00000000  0.05923762  0.00000000       0.250
   0.05923762  0.05923762  0.00000000       0.250

 k-points in reciprocal lattice and weights: pymatgen v2020.8.13 with grid density =
   0.00000000  0.00000000  0.00000000       0.250
   0.50000000  0.00000000  0.00000000       0.250
   0.00000000  0.50000000  0.00000000       0.250
   0.50000000  0.50000000  0.00000000       0.250

 position of ions in fractional coordinates (direct lattice)
   0.50000000  0.50000000  0.76349606
   0.50000000  0.50000000  0.81702507
   0.25000000  0.00000000  0.35161024
   0.50000000  0.25000000  0.35161024
   0.25000000  0.25000000  0.45053675
   0.50000000  0.00000000  0.45053675
   0.25009603  0.00000000  0.54980391
   0.50000000  0.25047830  0.55003764
   0.24970842  0.24970842  0.64794844
   0.50000000  0.00000000  0.64805861
   0.25000000  0.50000000  0.35161024
   0.50000000  0.75000000  0.35161024
   0.25000000  0.75000000  0.45053675
   0.50000000  0.50000000  0.45053675
   0.25047830  0.50000000  0.55003764
   0.50000000  0.74952170  0.55003764
   0.24970842  0.75029158  0.64794844
   0.50000000  0.50000000  0.65064531
   0.75000000  0.00000000  0.35161024
   0.00000000  0.25000000  0.35161024
   0.75000000  0.25000000  0.45053675
   0.00000000  0.00000000  0.45053675
   0.74990397  0.00000000  0.54980391
   0.00000000  0.25009603  0.54980391
   0.75029158  0.24970842  0.64794844
   0.00000000  0.00000000  0.64812039
   0.75000000  0.50000000  0.35161024
   0.00000000  0.75000000  0.35161024
   0.75000000  0.75000000  0.45053675
   0.00000000  0.50000000  0.45053675
   0.74952170  0.50000000  0.55003764
   0.00000000  0.74990397  0.54980391
   0.75029158  0.75029158  0.64794844
   0.00000000  0.50000000  0.64805861
   0.25000000  0.00000000  0.45053675
   0.50000000  0.25000000  0.45053675
   0.25000000  0.25000000  0.35161024
   0.50000000  0.00000000  0.35161024
   0.24973066  0.00000000  0.65005493
   0.50000000  0.24870667  0.65013010
   0.24998247  0.24998247  0.54962457
   0.50000000  0.00000000  0.54954778
   0.25000000  0.50000000  0.45053675
   0.50000000  0.75000000  0.45053675
   0.25000000  0.75000000  0.35161024
   0.50000000  0.50000000  0.35161024
   0.24870667  0.50000000  0.65013010
   0.50000000  0.75129333  0.65013010
   0.24998247  0.75001753  0.54962457
   0.50000000  0.50000000  0.55009497
   0.75000000  0.00000000  0.45053675
   0.00000000  0.25000000  0.45053675
   0.75000000  0.25000000  0.35161024
   0.00000000  0.00000000  0.35161024
   0.75026934  0.00000000  0.65005493
   0.00000000  0.24973066  0.65005493
   0.75001753  0.24998247  0.54962457
   0.00000000  0.00000000  0.54955833
   0.75000000  0.50000000  0.45053675
   0.00000000  0.75000000  0.45053675
   0.75000000  0.75000000  0.35161024
   0.00000000  0.50000000  0.35161024
   0.75129333  0.50000000  0.65013010
   0.00000000  0.75026934  0.65005493
   0.75001753  0.75001753  0.54962457
   0.00000000  0.50000000  0.54954778

 position of ions in cartesian coordinates  (Angst):
   4.22029113  4.22029113 16.28570432
   4.22029113  4.22029113 17.42750155
   2.11014557  0.00000000  7.50000000
   4.22029113  2.11014557  7.50000000
   2.11014557  2.11014557  9.61014557
   4.22029113  0.00000000  9.61014557
   2.11095615  0.00000000 11.72755760
   4.22029113  2.11418270 11.73254310
   2.10768445  2.10768445 13.82102317
   4.22029113  0.00000000 13.82337306
   2.11014557  4.22029113  7.50000000
   4.22029113  6.33043670  7.50000000
   2.11014557  6.33043670  9.61014557
   4.22029113  4.22029113  9.61014557
   2.11418270  4.22029113 11.73254310
   4.22029113  6.32639956 11.73254310
   2.10768445  6.33289781 13.82102317
   4.22029113  4.22029113 13.87854862
   6.33043670  0.00000000  7.50000000
   0.00000000  2.11014557  7.50000000
   6.33043670  2.11014557  9.61014557
   0.00000000  0.00000000  9.61014557
   6.32962612  0.00000000 11.72755760
   0.00000000  2.11095615 11.72755760
   6.33289781  2.10768445 13.82102317
   0.00000000  0.00000000 13.82469089
   6.33043670  4.22029113  7.50000000
   0.00000000  6.33043670  7.50000000
   6.33043670  6.33043670  9.61014557
   0.00000000  4.22029113  9.61014557
   6.32639956  4.22029113 11.73254310
   0.00000000  6.32962612 11.72755760
   6.33289781  6.33289781 13.82102317
   0.00000000  4.22029113 13.82337306
   2.11014557  0.00000000  9.61014557
   4.22029113  2.11014557  9.61014557
   2.11014557  2.11014557  7.50000000
   4.22029113  0.00000000  7.50000000
   2.10787215  0.00000000 13.86595544
   4.22029113  2.09922911 13.86755898
   2.10999758  2.10999758 11.72373199
   4.22029113  0.00000000 11.72209419
   2.11014557  4.22029113  9.61014557
   4.22029113  6.33043670  9.61014557
   2.11014557  6.33043670  7.50000000
   4.22029113  4.22029113  7.50000000
   2.09922911  4.22029113 13.86755898
   4.22029113  6.34135315 13.86755898
   2.10999758  6.33058468 11.72373199
   4.22029113  4.22029113 11.73376603
   6.33043670  0.00000000  9.61014557
   0.00000000  2.11014557  9.61014557
   6.33043670  2.11014557  7.50000000
   0.00000000  0.00000000  7.50000000
   6.33271011  0.00000000 13.86595544
   0.00000000  2.10787215 13.86595544
   6.33058468  2.10999758 11.72373199
   0.00000000  0.00000000 11.72231923
   6.33043670  4.22029113  9.61014557
   0.00000000  6.33043670  9.61014557
   6.33043670  6.33043670  7.50000000
   0.00000000  4.22029113  7.50000000
   6.34135315  4.22029113 13.86755898
   0.00000000  6.33271011 13.86595544
   6.33058468  6.33058468 11.72373199
   0.00000000  4.22029113 11.72209419



--------------------------------------------------------------------------------------------------------


 k-point   1 :   0.0000 0.0000 0.0000  plane waves:   50729
 k-point   2 :   0.5000 0.0000 0.0000  plane waves:   50790
 k-point   3 :   0.0000 0.5000 0.0000  plane waves:   50790
 k-point   4 :   0.5000 0.5000 0.0000  plane waves:   50752

 maximum and minimum number of plane-waves per node :      6371     6310

 maximum number of plane-waves:     50790
 maximum index in each direction:
   IXMAX=   16   IYMAX=   16   IZMAX=   42
   IXMIN=  -17   IYMIN=  -17   IZMIN=  -42


 parallel 3D FFT for wavefunctions:
    minimum data exchange during FFTs selected (reduces bandwidth)
 parallel 3D FFT for charge:
    minimum data exchange during FFTs selected (reduces bandwidth)


 total amount of memory used by VASP MPI-rank0    66858. kBytes
=======================================================================

   base      :      30000. kBytes
   nonl-proj :      17408. kBytes
   fftplans  :       4923. kBytes
   grid      :       8190. kBytes
   one-center:         73. kBytes
   wavefun   :       6264. kBytes

     INWAV:  cpu time      0.0000: real time      0.0000
 Broyden mixing: mesh for mixing (old mesh)
   NGX = 33   NGY = 33   NGZ = 85
  (NGX  =140   NGY  =140   NGZ  =360)
  gives a total of  92565 points

 initial charge density was supplied:
 charge density of overlapping atoms calculated
 number of electron     458.0000000 magnetization
 keeping initial charge density in first step


--------------------------------------------------------------------------------------------------------


 Maximum index for augmentation-charges          608 (set IRDMAX)


--------------------------------------------------------------------------------------------------------


 First call to EWALD:  gamma=   0.154
 Maximum number of real-space cells 4x 4x 2
 Maximum number of reciprocal cells 2x 2x 5

    FEWALD:  cpu time      0.0032: real time      0.0034


--------------------------------------- Iteration      1(   1)  ---------------------------------------


vdW kernel read from vdw_kernel.bindat
  0.0000  0.2424  0.5071  0.7962  1.1119  1.4567  1.8333  2.2446  2.6937  3.1842
  3.7199  4.3049  4.9438  5.6415  6.4036  7.2358  8.1446  9.1372 10.2212 11.4050
 12.6979 14.1099 15.6519 17.3360 19.1751 21.1837 23.3773 25.7729 28.3892 31.2465
 34.3669 37.7748 41.4965 45.5611 50.0000

    POTLOK:  cpu time      3.0222: real time      3.0263
    SETDIJ:  cpu time      0.2093: real time      0.2095
    TRIAL :  cpu time     18.9269: real time     19.0461
    CORREC:  cpu time      0.0013: real time      0.0013
    --------------------------------------------
      LOOP:  cpu time     22.1614: real time     22.3270

 eigenvalue-minimisations  :  3072
 total energy-change (2. order) : 0.4254708E+04  (-0.3066659E+05)
 number of electron     458.0000000 magnetization
 augmentation part      458.0000000 magnetization

 DIPCOR: dipole corrections for dipol
 direction  3 min pos     1,
 dipolmoment           0.000000      0.000000     -0.000236 electrons x Angstroem
 Tr[quadrupol]     -6317.835838

 energy correction for charged system         0.000000 eV
 dipol+quadrupol energy correction           -0.000000 eV
 added-field ion interaction          0.001845 eV  (added to PSCEN)


 Free energy of the ion-electron system (eV)
  ---------------------------------------------------
  alpha Z        PSCENC =       908.06537055
  Ewald energy   TEWEN  =    137680.68694039
  -Hartree energ DENC   =   -173774.80439479
  -exchange      EXHF   =         0.00000000
  -V(xc)+E(xc)   XCENC  =      1784.33147659
  PAW double counting   =     32339.39176546   -36140.44900584
  entropy T*S    EENTRO =        -0.01578340
  eigenvalues    EBANDS =     -6908.43127662
  atomic energy  EATOM  =     48365.93245855
  ---------------------------------------------------
  free energy    TOTEN  =      4254.70755088 eV

  energy without entropy =     4254.72333428  energy(sigma->0) =     4254.71544258


--------------------------------------------------------------------------------------------------------




--------------------------------------- Iteration      1(   2)  ---------------------------------------


    TRIAL :  cpu time      3.9597: real time      3.9603
    CORREC:  cpu time      0.0003: real time      0.0003
    --------------------------------------------
      LOOP:  cpu time      3.9653: real time      3.9755

 eigenvalue-minimisations  :  3072
 total energy-change (2. order) :-0.4280063E+04  (-0.4207339E+04)
 number of electron     458.0000000 magnetization
 augmentation part      458.0000000 magnetization

 DIPCOR: dipole corrections for dipol
 direction  3 min pos     1,
 dipolmoment           0.000000      0.000000     -0.000236 electrons x Angstroem
 Tr[quadrupol]     -6317.835838

 energy correction for charged system         0.000000 eV
 dipol+quadrupol energy correction           -0.000000 eV
 added-field ion interaction          0.001845 eV  (added to PSCEN)


 Free energy of the ion-electron system (eV)
  ---------------------------------------------------
  alpha Z        PSCENC =       908.06537055
  Ewald energy   TEWEN  =    137680.68694039
  -Hartree energ DENC   =   -173774.80439479
  -exchange      EXHF   =         0.00000000
  -V(xc)+E(xc)   XCENC  =      1784.33147659
  PAW double counting   =     32339.39176546   -36140.44900584
  entropy T*S    EENTRO =        -0.00000000
  eigenvalues    EBANDS =    -11188.50959822
  atomic energy  EATOM  =     48365.93245855
  ---------------------------------------------------
  free energy    TOTEN  =       -25.35498732 eV

  energy without entropy =      -25.35498732  energy(sigma->0) =      -25.35498732


--------------------------------------------------------------------------------------------------------




--------------------------------------- Iteration      1(   3)  ---------------------------------------


    TRIAL :  cpu time      4.2000: real time      4.2009
    CORREC:  cpu time      0.0003: real time      0.0003
    --------------------------------------------
      LOOP:  cpu time      4.2062: real time      4.2157

 eigenvalue-minimisations  :  3072
 total energy-change (2. order) :-0.3106293E+03  (-0.3086025E+03)
 number of electron     458.0000000 magnetization
 augmentation part      458.0000000 magnetization

 DIPCOR: dipole corrections for dipol
 direction  3 min pos     1,
 dipolmoment           0.000000      0.000000     -0.000236 electrons x Angstroem
 Tr[quadrupol]     -6317.835838

 energy correction for charged system         0.000000 eV
 dipol+quadrupol energy correction           -0.000000 eV
 added-field ion interaction          0.001845 eV  (added to PSCEN)


 Free energy of the ion-electron system (eV)
  ---------------------------------------------------
  alpha Z        PSCENC =       908.06537055
  Ewald energy   TEWEN  =    137680.68694039
  -Hartree energ DENC   =   -173774.80439479
  -exchange      EXHF   =         0.00000000
  -V(xc)+E(xc)   XCENC  =      1784.33147659
  PAW double counting   =     32339.39176546   -36140.44900584
  entropy T*S    EENTRO =        -0.00000000
  eigenvalues    EBANDS =    -11499.13891511
  atomic energy  EATOM  =     48365.93245855
  ---------------------------------------------------
  free energy    TOTEN  =      -335.98430421 eV

  energy without entropy =     -335.98430421  energy(sigma->0) =     -335.98430421


--------------------------------------------------------------------------------------------------------




--------------------------------------- Iteration      1(   4)  ---------------------------------------


    TRIAL :  cpu time      4.5977: real time      4.5979
    CORREC:  cpu time      0.0003: real time      0.0003
    --------------------------------------------
      LOOP:  cpu time      4.6024: real time      4.6124

 eigenvalue-minimisations  :  3264
 total energy-change (2. order) :-0.6013553E+01  (-0.6006719E+01)
 number of electron     458.0000000 magnetization
 augmentation part      458.0000000 magnetization

 DIPCOR: dipole corrections for dipol
 direction  3 min pos     1,
 dipolmoment           0.000000      0.000000     -0.000236 electrons x Angstroem
 Tr[quadrupol]     -6317.835838

 energy correction for charged system         0.000000 eV
 dipol+quadrupol energy correction           -0.000000 eV
 added-field ion interaction          0.001845 eV  (added to PSCEN)


 Free energy of the ion-electron system (eV)
  ---------------------------------------------------
  alpha Z        PSCENC =       908.06537055
  Ewald energy   TEWEN  =    137680.68694039
  -Hartree energ DENC   =   -173774.80439479
  -exchange      EXHF   =         0.00000000
  -V(xc)+E(xc)   XCENC  =      1784.33147659
  PAW double counting   =     32339.39176546   -36140.44900584
  entropy T*S    EENTRO =        -0.00000000
  eigenvalues    EBANDS =    -11505.15246779
  atomic energy  EATOM  =     48365.93245855
  ---------------------------------------------------
  free energy    TOTEN  =      -341.99785689 eV

  energy without entropy =     -341.99785689  energy(sigma->0) =     -341.99785689


--------------------------------------------------------------------------------------------------------




--------------------------------------- Iteration      1(   5)  ---------------------------------------


    TRIAL :  cpu time      3.9891: real time      3.9898
    CORREC:  cpu time      0.0003: real time      0.0003
    CHARGE:  cpu time      0.0430: real time      0.0431
    --------------------------------------------
      LOOP:  cpu time      4.0464: real time      4.0474

 eigenvalue-minimisations  :  3072
 total energy-change (2. order) :-0.7280967E-01  (-0.7280694E-01)
 number of electron     457.9999544 magnetization
 augmentation part      159.5943249 magnetization

 DIPCOR: dipole corrections for dipol
 direction  3 min pos     1,
 dipolmoment           0.000000      0.000000     -0.000236 electrons x Angstroem
 Tr[quadrupol]     -6317.835838

 energy correction for charged system         0.000000 eV
 dipol+quadrupol energy correction           -0.000000 eV
 added-field ion interaction          0.001845 eV  (added to PSCEN)


 Free energy of the ion-electron system (eV)
  ---------------------------------------------------
  alpha Z        PSCENC =       908.06537055
  Ewald energy   TEWEN  =    137680.68694039
  -Hartree energ DENC   =   -173774.80439479
  -exchange      EXHF   =         0.00000000
  -V(xc)+E(xc)   XCENC  =      1784.33147659
  PAW double counting   =     32339.39176546   -36140.44900584
  entropy T*S    EENTRO =        -0.00000000
  eigenvalues    EBANDS =    -11505.22527747
  atomic energy  EATOM  =     48365.93245855
  ---------------------------------------------------
  free energy    TOTEN  =      -342.07066656 eV

  energy without entropy =     -342.07066656  energy(sigma->0) =     -342.07066656


--------------------------------------------------------------------------------------------------------




--------------------------------------- Iteration      1(   6)  ---------------------------------------


    POTLOK:  cpu time      2.2470: real time      2.2471
    SETDIJ:  cpu time      0.2091: real time      0.2092
    TRIAL :  cpu time      1.1411: real time      1.1419
    CORREC:  cpu time      2.9654: real time      2.9659
    CHARGE:  cpu time      0.0372: real time      0.0372
    --------------------------------------------
      LOOP:  cpu time      6.6134: real time      6.6151

 eigenvalue-minimisations  :     0
 total energy-change (2. order) : 0.1775662E+03  (-0.9808735E+02)
 number of electron     457.9999544 magnetization
 augmentation part      156.7632570 magnetization

 DIPCOR: dipole corrections for dipol
 direction  3 min pos     1,
 dipolmoment           0.000000      0.000000      0.112532 electrons x Angstroem
 Tr[quadrupol]     -6353.933039

 energy correction for charged system         0.000000 eV
 dipol+quadrupol energy correction           -0.000754 eV
 added-field ion interaction         -0.878305 eV  (added to PSCEN)


 Free energy of the ion-electron system (eV)
  ---------------------------------------------------
  alpha Z        PSCENC =       905.38720946
  Ewald energy   TEWEN  =    137680.68694039
  -Hartree energ DENC   =   -177671.67459898
  -exchange      EXHF   =         0.00000000
  -V(xc)+E(xc)   XCENC  =      1908.52076646
  PAW double counting   =     36965.29650392   -40713.47489120
  entropy T*S    EENTRO =        -0.00000000
  eigenvalues    EBANDS =     -7605.17881228
  atomic energy  EATOM  =     48365.93245855
  ---------------------------------------------------
  free energy    TOTEN  =      -164.50442367 eV

  energy without entropy =     -164.50442367  energy(sigma->0) =     -164.50442367


--------------------------------------------------------------------------------------------------------




--------------------------------------- Iteration      1(   7)  ---------------------------------------


    POTLOK:  cpu time      2.2163: real time      2.2164
    SETDIJ:  cpu time      0.2089: real time      0.2094
    TRIAL :  cpu time      0.9876: real time      0.9876
    CORREC:  cpu time      2.9646: real time      2.9648
    CHARGE:  cpu time      0.0376: real time      0.0376
    --------------------------------------------
      LOOP:  cpu time      6.4201: real time      6.4300

 eigenvalue-minimisations  :     0
 total energy-change (2. order) :-0.9855429E+02  (-0.7042747E+01)
 number of electron     457.9999549 magnetization
 augmentation part      154.8368712 magnetization

 DIPCOR: dipole corrections for dipol
 direction  3 min pos     1,
 dipolmoment           0.000000      0.000000      0.118623 electrons x Angstroem
 Tr[quadrupol]     -6359.723712

 energy correction for charged system         0.000000 eV
 dipol+quadrupol energy correction           -0.000838 eV
 added-field ion interaction         -0.925848 eV  (added to PSCEN)


 Free energy of the ion-electron system (eV)
  ---------------------------------------------------
  alpha Z        PSCENC =       906.94983828
  Ewald energy   TEWEN  =    137680.68694039
  -Hartree energ DENC   =   -175793.93137611
  -exchange      EXHF   =         0.00000000
  -V(xc)+E(xc)   XCENC  =      1839.34323001
  PAW double counting   =     35845.49367773   -39667.99651605
  entropy T*S    EENTRO =        -0.00000000
  eigenvalues    EBANDS =     -9439.53696536
  atomic energy  EATOM  =     48365.93245855
  ---------------------------------------------------
  free energy    TOTEN  =      -263.05871256 eV

  energy without entropy =     -263.05871256  energy(sigma->0) =     -263.05871256


--------------------------------------------------------------------------------------------------------




--------------------------------------- Iteration      1(   8)  ---------------------------------------


    POTLOK:  cpu time      2.2809: real time      2.2810
    SETDIJ:  cpu time      0.2087: real time      0.2087
    TRIAL :  cpu time      0.9930: real time      0.9931
    CORREC:  cpu time      3.0062: real time      3.0069
    CHARGE:  cpu time      0.0376: real time      0.0376
    --------------------------------------------
      LOOP:  cpu time      6.5404: real time      6.5414

 eigenvalue-minimisations  :     0
 total energy-change (2. order) :-0.7060084E+01  (-0.4447951E+01)
 number of electron     457.9999548 magnetization
 augmentation part      154.9624672 magnetization

 DIPCOR: dipole corrections for dipol
 direction  3 min pos     1,
 dipolmoment           0.000000      0.000000      0.082396 electrons x Angstroem
 Tr[quadrupol]     -6358.122912

 energy correction for charged system         0.000000 eV
 dipol+quadrupol energy correction           -0.000404 eV
 added-field ion interaction         -0.643096 eV  (added to PSCEN)


 Free energy of the ion-electron system (eV)
  ---------------------------------------------------
  alpha Z        PSCENC =       907.20695774
  Ewald energy   TEWEN  =    137680.68694039
  -Hartree energ DENC   =   -175680.17331438
  -exchange      EXHF   =         0.00000000
  -V(xc)+E(xc)   XCENC  =      1829.35319188
  PAW double counting   =     35720.61571242   -39471.30468663
  entropy T*S    EENTRO =        -0.00000000
  eigenvalues    EBANDS =     -9622.43605675
  atomic energy  EATOM  =     48365.93245855
  ---------------------------------------------------
  free energy    TOTEN  =      -270.11879679 eV

  energy without entropy =     -270.11879679  energy(sigma->0) =     -270.11879679


--------------------------------------------------------------------------------------------------------




--------------------------------------- Iteration      1(   9)  ---------------------------------------


    POTLOK:  cpu time      2.2554: real time      2.2556
    SETDIJ:  cpu time      0.2093: real time      0.2094
    TRIAL :  cpu time      0.9943: real time      0.9944
    CORREC:  cpu time      2.9966: real time      2.9968
    CHARGE:  cpu time      0.0378: real time      0.0378
    --------------------------------------------
      LOOP:  cpu time      6.5002: real time      6.5084

 eigenvalue-minimisations  :     0
 total energy-change (2. order) :-0.4398726E+01  (-0.1901308E+01)
 number of electron     457.9999547 magnetization
 augmentation part      155.0146923 magnetization

 DIPCOR: dipole corrections for dipol
 direction  3 min pos     1,
 dipolmoment           0.000000      0.000000      0.091424 electrons x Angstroem
 Tr[quadrupol]     -6352.222639

 energy correction for charged system         0.000000 eV
 dipol+quadrupol energy correction           -0.000498 eV
 added-field ion interaction         -0.713558 eV  (added to PSCEN)


 Free energy of the ion-electron system (eV)
  ---------------------------------------------------
  alpha Z        PSCENC =       907.51988445
  Ewald energy   TEWEN  =    137680.68694039
  -Hartree energ DENC   =   -175567.82047619
  -exchange      EXHF   =         0.00000000
  -V(xc)+E(xc)   XCENC  =      1828.96401156
  PAW double counting   =     35639.64722148   -39426.98502820
  entropy T*S    EENTRO =        -0.00000000
  eigenvalues    EBANDS =     -9702.46253472
  atomic energy  EATOM  =     48365.93245855
  ---------------------------------------------------
  free energy    TOTEN  =      -274.51752268 eV

  energy without entropy =     -274.51752268  energy(sigma->0) =     -274.51752268


--------------------------------------------------------------------------------------------------------




--------------------------------------- Iteration      1(  10)  ---------------------------------------


    POTLOK:  cpu time      2.2693: real time      2.2694
    SETDIJ:  cpu time      0.2092: real time      0.2092
    TRIAL :  cpu time      0.9933: real time      0.9939
    CORREC:  cpu time      2.9739: real time      2.9741
    CHARGE:  cpu time      0.0373: real time      0.0373
    --------------------------------------------
      LOOP:  cpu time      6.4969: real time      6.4983

 eigenvalue-minimisations  :     0
 total energy-change (2. order) :-0.1906566E+01  (-0.6622633E+00)
 number of electron     457.9999548 magnetization
 augmentation part      154.9777838 magnetization

 DIPCOR: dipole corrections for dipol
 direction  3 min pos     1,
 dipolmoment           0.000000      0.000000      0.114504 electrons x Angstroem
 Tr[quadrupol]     -6350.739774

 energy correction for charged system         0.000000 eV
 dipol+quadrupol energy correction           -0.000781 eV
 added-field ion interaction         -0.893698 eV  (added to PSCEN)


 Free energy of the ion-electron system (eV)
  ---------------------------------------------------
  alpha Z        PSCENC =       907.36526713
  Ewald energy   TEWEN  =    137680.68694039
  -Hartree energ DENC   =   -175417.43031521
  -exchange      EXHF   =         0.00000000
  -V(xc)+E(xc)   XCENC  =      1827.60376713
  PAW double counting   =     35539.19132245   -39335.89087887
  entropy T*S    EENTRO =        -0.00000000
  eigenvalues    EBANDS =     -9843.88265011
  atomic energy  EATOM  =     48365.93245855
  ---------------------------------------------------
  free energy    TOTEN  =      -276.42408854 eV

  energy without entropy =     -276.42408854  energy(sigma->0) =     -276.42408854


--------------------------------------------------------------------------------------------------------




--------------------------------------- Iteration      1(  11)  ---------------------------------------


    POTLOK:  cpu time      2.2438: real time      2.2439
    SETDIJ:  cpu time      0.2089: real time      0.2089
    TRIAL :  cpu time      0.9934: real time      0.9935
    CORREC:  cpu time      2.9697: real time      2.9699
    CHARGE:  cpu time      0.0375: real time      0.0375
    --------------------------------------------
      LOOP:  cpu time      6.4578: real time      6.4679

 eigenvalue-minimisations  :     0
 total energy-change (2. order) :-0.6630176E+00  (-0.2057042E+00)
 number of electron     457.9999548 magnetization
 augmentation part      155.0568266 magnetization

 DIPCOR: dipole corrections for dipol
 direction  3 min pos     1,
 dipolmoment           0.000000      0.000000      0.115131 electrons x Angstroem
 Tr[quadrupol]     -6350.876138

 energy correction for charged system         0.000000 eV
 dipol+quadrupol energy correction           -0.000789 eV
 added-field ion interaction         -0.898594 eV  (added to PSCEN)


 Free energy of the ion-electron system (eV)
  ---------------------------------------------------
  alpha Z        PSCENC =       907.18914494
  Ewald energy   TEWEN  =    137680.68694039
  -Hartree energ DENC   =   -175346.23161087
  -exchange      EXHF   =         0.00000000
  -V(xc)+E(xc)   XCENC  =      1826.58555981
  PAW double counting   =     35484.94996563   -39273.49959397
  entropy T*S    EENTRO =        -0.00000000
  eigenvalues    EBANDS =     -9922.69997066
  atomic energy  EATOM  =     48365.93245855
  ---------------------------------------------------
  free energy    TOTEN  =      -277.08710619 eV

  energy without entropy =     -277.08710619  energy(sigma->0) =     -277.08710619


--------------------------------------------------------------------------------------------------------




--------------------------------------- Iteration      1(  12)  ---------------------------------------


    POTLOK:  cpu time      2.2491: real time      2.2494
    SETDIJ:  cpu time      0.2091: real time      0.2091
    TRIAL :  cpu time      1.0033: real time      1.0034
    CORREC:  cpu time      2.9839: real time      2.9841
    CHARGE:  cpu time      0.0375: real time      0.0375
    --------------------------------------------
      LOOP:  cpu time      6.4890: real time      6.4981

 eigenvalue-minimisations  :     0
 total energy-change (2. order) :-0.2057047E+00  (-0.6326627E-01)
 number of electron     457.9999547 magnetization
 augmentation part      155.1450214 magnetization

 DIPCOR: dipole corrections for dipol
 direction  3 min pos     1,
 dipolmoment           0.000000      0.000000      0.110455 electrons x Angstroem
 Tr[quadrupol]     -6351.098990

 energy correction for charged system         0.000000 eV
 dipol+quadrupol energy correction           -0.000726 eV
 added-field ion interaction         -0.862095 eV  (added to PSCEN)


 Free energy of the ion-electron system (eV)
  ---------------------------------------------------
  alpha Z        PSCENC =       907.16435544
  Ewald energy   TEWEN  =    137680.68694039
  -Hartree energ DENC   =   -175346.09704264
  -exchange      EXHF   =         0.00000000
  -V(xc)+E(xc)   XCENC  =      1826.65384090
  PAW double counting   =     35474.09466404   -39260.88132589
  entropy T*S    EENTRO =        -0.00000000
  eigenvalues    EBANDS =     -9924.84670170
  atomic energy  EATOM  =     48365.93245855
  ---------------------------------------------------
  free energy    TOTEN  =      -277.29281092 eV

  energy without entropy =     -277.29281092  energy(sigma->0) =     -277.29281092


--------------------------------------------------------------------------------------------------------




--------------------------------------- Iteration      1(  13)  ---------------------------------------


    POTLOK:  cpu time      2.2719: real time      2.2720
    SETDIJ:  cpu time      0.2091: real time      0.2092
    TRIAL :  cpu time      0.9947: real time      0.9948
    CORREC:  cpu time      2.9889: real time      2.9893
    CHARGE:  cpu time      0.0373: real time      0.0373
    --------------------------------------------
      LOOP:  cpu time      6.5164: real time      6.5173

 eigenvalue-minimisations  :     0
 total energy-change (2. order) :-0.6326932E-01  (-0.2411924E-01)
 number of electron     457.9999547 magnetization
 augmentation part      155.1722946 magnetization

 DIPCOR: dipole corrections for dipol
 direction  3 min pos     1,
 dipolmoment           0.000000      0.000000      0.106718 electrons x Angstroem
 Tr[quadrupol]     -6351.255715

 energy correction for charged system         0.000000 eV
 dipol+quadrupol energy correction           -0.000678 eV
 added-field ion interaction         -0.832933 eV  (added to PSCEN)


 Free energy of the ion-electron system (eV)
  ---------------------------------------------------
  alpha Z        PSCENC =       907.20415524
  Ewald energy   TEWEN  =    137680.68694039
  -Hartree energ DENC   =   -175357.16680576
  -exchange      EXHF   =         0.00000000
  -V(xc)+E(xc)   XCENC  =      1826.81915054
  PAW double counting   =     35473.04063727   -39262.44600364
  entropy T*S    EENTRO =        -0.00000000
  eigenvalues    EBANDS =     -9911.42661283
  atomic energy  EATOM  =     48365.93245855
  ---------------------------------------------------
  free energy    TOTEN  =      -277.35608024 eV

  energy without entropy =     -277.35608024  energy(sigma->0) =     -277.35608024


--------------------------------------------------------------------------------------------------------




--------------------------------------- Iteration      1(  14)  ---------------------------------------


    POTLOK:  cpu time      2.2532: real time      2.2534
    SETDIJ:  cpu time      0.2092: real time      0.2092
    TRIAL :  cpu time      0.9913: real time      0.9913
    CORREC:  cpu time      3.0091: real time      3.0093
    CHARGE:  cpu time      0.0376: real time      0.0376
    --------------------------------------------
      LOOP:  cpu time      6.5062: real time      6.5153

 eigenvalue-minimisations  :     0
 total energy-change (2. order) :-0.2411824E-01  (-0.1012274E-01)
 number of electron     457.9999547 magnetization
 augmentation part      155.1635450 magnetization

 DIPCOR: dipole corrections for dipol
 direction  3 min pos     1,
 dipolmoment           0.000000      0.000000      0.104255 electrons x Angstroem
 Tr[quadrupol]     -6351.433145

 energy correction for charged system         0.000000 eV
 dipol+quadrupol energy correction           -0.000647 eV
 added-field ion interaction         -0.813706 eV  (added to PSCEN)


 Free energy of the ion-electron system (eV)
  ---------------------------------------------------
  alpha Z        PSCENC =       907.23632147
  Ewald energy   TEWEN  =    137680.68694039
  -Hartree energ DENC   =   -175362.15996073
  -exchange      EXHF   =         0.00000000
  -V(xc)+E(xc)   XCENC  =      1826.80785490
  PAW double counting   =     35472.39677611   -39262.95117757
  entropy T*S    EENTRO =        -0.00000000
  eigenvalues    EBANDS =     -9905.32941160
  atomic energy  EATOM  =     48365.93245855
  ---------------------------------------------------
  free energy    TOTEN  =      -277.38019848 eV

  energy without entropy =     -277.38019848  energy(sigma->0) =     -277.38019848


--------------------------------------------------------------------------------------------------------




--------------------------------------- Iteration      1(  15)  ---------------------------------------


    POTLOK:  cpu time      2.2484: real time      2.2486
    SETDIJ:  cpu time      0.2092: real time      0.2092
    TRIAL :  cpu time      0.9915: real time      0.9922
    CORREC:  cpu time      2.9869: real time      2.9871
    CHARGE:  cpu time      0.0374: real time      0.0374
    --------------------------------------------
      LOOP:  cpu time      6.4785: real time      6.4890

 eigenvalue-minimisations  :     0
 total energy-change (2. order) :-0.1012189E-01  (-0.4165216E-02)
 number of electron     457.9999547 magnetization
 augmentation part      155.1550508 magnetization

 DIPCOR: dipole corrections for dipol
 direction  3 min pos     1,
 dipolmoment           0.000000      0.000000      0.103057 electrons x Angstroem
 Tr[quadrupol]     -6351.585384

 energy correction for charged system         0.000000 eV
 dipol+quadrupol energy correction           -0.000632 eV
 added-field ion interaction         -0.804353 eV  (added to PSCEN)


 Free energy of the ion-electron system (eV)
  ---------------------------------------------------
  alpha Z        PSCENC =       907.25273293
  Ewald energy   TEWEN  =    137680.68694039
  -Hartree energ DENC   =   -175368.33742677
  -exchange      EXHF   =         0.00000000
  -V(xc)+E(xc)   XCENC  =      1826.85788316
  PAW double counting   =     35475.21459980   -39265.12765194
  entropy T*S    EENTRO =        -0.00000000
  eigenvalues    EBANDS =     -9899.86985648
  atomic energy  EATOM  =     48365.93245855
  ---------------------------------------------------
  free energy    TOTEN  =      -277.39032037 eV

  energy without entropy =     -277.39032037  energy(sigma->0) =     -277.39032037


--------------------------------------------------------------------------------------------------------




--------------------------------------- Iteration      1(  16)  ---------------------------------------


    POTLOK:  cpu time      2.2676: real time      2.2677
    SETDIJ:  cpu time      0.2090: real time      0.2090
    TRIAL :  cpu time      0.9907: real time      0.9907
    CORREC:  cpu time      2.9708: real time      2.9710
    CHARGE:  cpu time      0.0376: real time      0.0376
    --------------------------------------------
      LOOP:  cpu time      6.4815: real time      6.4902

 eigenvalue-minimisations  :     0
 total energy-change (2. order) :-0.4162476E-02  (-0.1399062E-02)
 number of electron     457.9999547 magnetization
 augmentation part      155.1522636 magnetization

 DIPCOR: dipole corrections for dipol
 direction  3 min pos     1,
 dipolmoment           0.000000      0.000000      0.103207 electrons x Angstroem
 Tr[quadrupol]     -6351.648270

 energy correction for charged system         0.000000 eV
 dipol+quadrupol energy correction           -0.000634 eV
 added-field ion interaction         -0.805528 eV  (added to PSCEN)


 Free energy of the ion-electron system (eV)
  ---------------------------------------------------
  alpha Z        PSCENC =       907.26065365
  Ewald energy   TEWEN  =    137680.68694039
  -Hartree energ DENC   =   -175374.50041478
  -exchange      EXHF   =         0.00000000
  -V(xc)+E(xc)   XCENC  =      1826.95879080
  PAW double counting   =     35479.36344062   -39268.81299692
  entropy T*S    EENTRO =        -0.00000000
  eigenvalues    EBANDS =     -9894.28335515
  atomic energy  EATOM  =     48365.93245855
  ---------------------------------------------------
  free energy    TOTEN  =      -277.39448285 eV

  energy without entropy =     -277.39448285  energy(sigma->0) =     -277.39448285


--------------------------------------------------------------------------------------------------------




--------------------------------------- Iteration      1(  17)  ---------------------------------------


    POTLOK:  cpu time      2.2314: real time      2.2318
    SETDIJ:  cpu time      0.2093: real time      0.2093
    TRIAL :  cpu time      0.9919: real time      0.9920
    CORREC:  cpu time      2.9886: real time      2.9888
    CHARGE:  cpu time      0.0374: real time      0.0374
    --------------------------------------------
      LOOP:  cpu time      6.4729: real time      6.4739

 eigenvalue-minimisations  :     0
 total energy-change (2. order) :-0.1397258E-02  (-0.5012295E-03)
 number of electron     457.9999547 magnetization
 augmentation part      155.1516609 magnetization

 DIPCOR: dipole corrections for dipol
 direction  3 min pos     1,
 dipolmoment           0.000000      0.000000      0.104256 electrons x Angstroem
 Tr[quadrupol]     -6351.642903

 energy correction for charged system         0.000000 eV
 dipol+quadrupol energy correction           -0.000647 eV
 added-field ion interaction         -0.813711 eV  (added to PSCEN)


 Free energy of the ion-electron system (eV)
  ---------------------------------------------------
  alpha Z        PSCENC =       907.25638922
  Ewald energy   TEWEN  =    137680.68694039
  -Hartree energ DENC   =   -175375.64289000
  -exchange      EXHF   =         0.00000000
  -V(xc)+E(xc)   XCENC  =      1826.97301537
  PAW double counting   =     35481.13414982   -39270.71676585
  entropy T*S    EENTRO =        -0.00000000
  eigenvalues    EBANDS =     -9893.01917761
  atomic energy  EATOM  =     48365.93245855
  ---------------------------------------------------
  free energy    TOTEN  =      -277.39588011 eV

  energy without entropy =     -277.39588011  energy(sigma->0) =     -277.39588011


--------------------------------------------------------------------------------------------------------




--------------------------------------- Iteration      1(  18)  ---------------------------------------


    POTLOK:  cpu time      2.2716: real time      2.2717
    SETDIJ:  cpu time      0.2091: real time      0.2091
    TRIAL :  cpu time      0.9907: real time      0.9907
    CORREC:  cpu time      2.9823: real time      2.9825
    CHARGE:  cpu time      0.0378: real time      0.0378
    --------------------------------------------
      LOOP:  cpu time      6.4986: real time      6.5063

 eigenvalue-minimisations  :     0
 total energy-change (2. order) :-0.5002360E-03  (-0.1717080E-03)
 number of electron     457.9999547 magnetization
 augmentation part      155.1520853 magnetization

 DIPCOR: dipole corrections for dipol
 direction  3 min pos     1,
 dipolmoment           0.000000      0.000000      0.104978 electrons x Angstroem
 Tr[quadrupol]     -6351.626930

 energy correction for charged system         0.000000 eV
 dipol+quadrupol energy correction           -0.000656 eV
 added-field ion interaction         -0.819350 eV  (added to PSCEN)


 Free energy of the ion-electron system (eV)
  ---------------------------------------------------
  alpha Z        PSCENC =       907.24694799
  Ewald energy   TEWEN  =    137680.68694039
  -Hartree energ DENC   =   -175375.25291922
  -exchange      EXHF   =         0.00000000
  -V(xc)+E(xc)   XCENC  =      1826.97375746
  PAW double counting   =     35482.47048624   -39272.12841913
  entropy T*S    EENTRO =        -0.00000000
  eigenvalues    EBANDS =     -9893.32563262
  atomic energy  EATOM  =     48365.93245855
  ---------------------------------------------------
  free energy    TOTEN  =      -277.39638034 eV

  energy without entropy =     -277.39638034  energy(sigma->0) =     -277.39638034


--------------------------------------------------------------------------------------------------------




--------------------------------------- Iteration      1(  19)  ---------------------------------------


    POTLOK:  cpu time      2.2628: real time      2.2629
    SETDIJ:  cpu time      0.2091: real time      0.2091
    TRIAL :  cpu time      0.9894: real time      0.9895
    CORREC:  cpu time      2.9709: real time      2.9710
    CHARGE:  cpu time      0.0374: real time      0.0374
    --------------------------------------------
      LOOP:  cpu time      6.4837: real time      6.4843

 eigenvalue-minimisations  :     0
 total energy-change (2. order) :-0.1715908E-03  (-0.6183490E-04)
 number of electron     457.9999547 magnetization
 augmentation part      155.1517752 magnetization

 DIPCOR: dipole corrections for dipol
 direction  3 min pos     1,
 dipolmoment           0.000000      0.000000      0.105252 electrons x Angstroem
 Tr[quadrupol]     -6351.608206

 energy correction for charged system         0.000000 eV
 dipol+quadrupol energy correction           -0.000660 eV
 added-field ion interaction         -0.821490 eV  (added to PSCEN)


 Free energy of the ion-electron system (eV)
  ---------------------------------------------------
  alpha Z        PSCENC =       907.24223131
  Ewald energy   TEWEN  =    137680.68694039
  -Hartree energ DENC   =   -175374.99995240
  -exchange      EXHF   =         0.00000000
  -V(xc)+E(xc)   XCENC  =      1826.98971996
  PAW double counting   =     35483.41429698   -39273.01190596
  entropy T*S    EENTRO =        -0.00000000
  eigenvalues    EBANDS =     -9893.65034076
  atomic energy  EATOM  =     48365.93245855
  ---------------------------------------------------
  free energy    TOTEN  =      -277.39655193 eV

  energy without entropy =     -277.39655193  energy(sigma->0) =     -277.39655193


--------------------------------------------------------------------------------------------------------




--------------------------------------- Iteration      1(  20)  ---------------------------------------


    POTLOK:  cpu time      2.2543: real time      2.2549
    SETDIJ:  cpu time      0.2093: real time      0.2093
    TRIAL :  cpu time      0.9910: real time      0.9910
    CORREC:  cpu time      2.9891: real time      2.9894
    CHARGE:  cpu time      0.0374: real time      0.0374
    --------------------------------------------
      LOOP:  cpu time      6.4862: real time      6.4964

 eigenvalue-minimisations  :     0
 total energy-change (2. order) :-0.6175575E-04  (-0.1902986E-04)
 number of electron     457.9999547 magnetization
 augmentation part      155.1515477 magnetization

 DIPCOR: dipole corrections for dipol
 direction  3 min pos     1,
 dipolmoment           0.000000      0.000000      0.105335 electrons x Angstroem
 Tr[quadrupol]     -6351.594975

 energy correction for charged system         0.000000 eV
 dipol+quadrupol energy correction           -0.000661 eV
 added-field ion interaction         -0.822132 eV  (added to PSCEN)


 Free energy of the ion-electron system (eV)
  ---------------------------------------------------
[...]
      4.220291  0.000000 13.823373            0           0           0
      2.110146  4.220291  7.500000            0           0           0
      4.220291  6.330437  7.500000            0           0           0
      2.110146  6.330437  9.610146            0           0           0
      4.220291  4.220291  9.610146            0           0           0
      2.114183  4.220291 11.732543            0           0           0
      4.220291  6.326400 11.732543            0           0           0
      2.107684  6.332898 13.821023            0           0           0
      4.220291  4.220291 13.878549            0           0           0
      6.330437  0.000000  7.500000            0           0           0
      0.000000  2.110146  7.500000            0           0           0
      6.330437  2.110146  9.610146            0           0           0
      0.000000  0.000000  9.610146            0           0           0
      6.329626  0.000000 11.727558            0           0           0
      0.000000  2.110956 11.727558            0           0           0
      6.332898  2.107684 13.821023            0           0           0
      0.000000  0.000000 13.824691            0           0           0
      6.330437  4.220291  7.500000            0           0           0
      0.000000  6.330437  7.500000            0           0           0
      6.330437  6.330437  9.610146            0           0           0
      0.000000  4.220291  9.610146            0           0           0
      6.326400  4.220291 11.732543            0           0           0
      0.000000  6.329626 11.727558            0           0           0
      6.332898  6.332898 13.821023            0           0           0
      0.000000  4.220291 13.823373            0           0           0
      2.110146  0.000000  9.610146            0           0           0
      4.220291  2.110146  9.610146            0           0           0
      2.110146  2.110146  7.500000            0           0           0
      4.220291  0.000000  7.500000            0           0           0
      2.107872  0.000000 13.865955            0           0           0
      4.220291  2.099229 13.867559            0           0           0
      2.109998  2.109998 11.723732            0           0           0
      4.220291  0.000000 11.722094            0           0           0
      2.110146  4.220291  9.610146            0           0           0
      4.220291  6.330437  9.610146            0           0           0
      2.110146  6.330437  7.500000            0           0           0
      4.220291  4.220291  7.500000            0           0           0
      2.099229  4.220291 13.867559            0           0           0
      4.220291  6.341353 13.867559            0           0           0
      2.109998  6.330585 11.723732            0           0           0
      4.220291  4.220291 11.733766            0           0           0
      6.330437  0.000000  9.610146            0           0           0
      0.000000  2.110146  9.610146            0           0           0
      6.330437  2.110146  7.500000            0           0           0
      0.000000  0.000000  7.500000            0           0           0
      6.332710  0.000000 13.865955            0           0           0
      0.000000  2.107872 13.865955            0           0           0
      6.330585  2.109998 11.723732            0           0           0
      0.000000  0.000000 11.722319            0           0           0
      6.330437  4.220291  9.610146            0           0           0
      0.000000  6.330437  9.610146            0           0           0
      6.330437  6.330437  7.500000            0           0           0
      0.000000  4.220291  7.500000            0           0           0
      6.341353  4.220291 13.867559            0           0           0
      0.000000  6.332710 13.865955            0           0           0
      6.330585  6.330585 11.723732            0           0           0
      0.000000  4.220291 11.722094            0           0           0

   4 f  =    3.750984 THz    23.568127 2PiTHz  125.119356 cm-1    15.512816 meV
             X         Y         Z           dx          dy          dz
      4.220291  4.220291 16.285704    -0.000882   -0.000560    0.653386
      4.220291  4.220291 17.427502    -0.002561   -0.002657    0.757015
      2.110146  0.000000  7.500000            0           0           0
      4.220291  2.110146  7.500000            0           0           0
      2.110146  2.110146  9.610146            0           0           0
      4.220291  0.000000  9.610146            0           0           0
      2.110956  0.000000 11.727558            0           0           0
      4.220291  2.114183 11.732543            0           0           0
      2.107684  2.107684 13.821023            0           0           0
      4.220291  0.000000 13.823373            0           0           0
      2.110146  4.220291  7.500000            0           0           0
      4.220291  6.330437  7.500000            0           0           0
      2.110146  6.330437  9.610146            0           0           0
      4.220291  4.220291  9.610146            0           0           0
      2.114183  4.220291 11.732543            0           0           0
      4.220291  6.326400 11.732543            0           0           0
      2.107684  6.332898 13.821023            0           0           0
      4.220291  4.220291 13.878549            0           0           0
      6.330437  0.000000  7.500000            0           0           0
      0.000000  2.110146  7.500000            0           0           0
      6.330437  2.110146  9.610146            0           0           0
      0.000000  0.000000  9.610146            0           0           0
      6.329626  0.000000 11.727558            0           0           0
      0.000000  2.110956 11.727558            0           0           0
      6.332898  2.107684 13.821023            0           0           0
      0.000000  0.000000 13.824691            0           0           0
      6.330437  4.220291  7.500000            0           0           0
      0.000000  6.330437  7.500000            0           0           0
      6.330437  6.330437  9.610146            0           0           0
      0.000000  4.220291  9.610146            0           0           0
      6.326400  4.220291 11.732543            0           0           0
      0.000000  6.329626 11.727558            0           0           0
      6.332898  6.332898 13.821023            0           0           0
      0.000000  4.220291 13.823373            0           0           0
      2.110146  0.000000  9.610146            0           0           0
      4.220291  2.110146  9.610146            0           0           0
      2.110146  2.110146  7.500000            0           0           0
      4.220291  0.000000  7.500000            0           0           0
      2.107872  0.000000 13.865955            0           0           0
      4.220291  2.099229 13.867559            0           0           0
      2.109998  2.109998 11.723732            0           0           0
      4.220291  0.000000 11.722094            0           0           0
      2.110146  4.220291  9.610146            0           0           0
      4.220291  6.330437  9.610146            0           0           0
      2.110146  6.330437  7.500000            0           0           0
      4.220291  4.220291  7.500000            0           0           0
      2.099229  4.220291 13.867559            0           0           0
      4.220291  6.341353 13.867559            0           0           0
      2.109998  6.330585 11.723732            0           0           0
      4.220291  4.220291 11.733766            0           0           0
      6.330437  0.000000  9.610146            0           0           0
      0.000000  2.110146  9.610146            0           0           0
      6.330437  2.110146  7.500000            0           0           0
      0.000000  0.000000  7.500000            0           0           0
      6.332710  0.000000 13.865955            0           0           0
      0.000000  2.107872 13.865955            0           0           0
      6.330585  2.109998 11.723732            0           0           0
      0.000000  0.000000 11.722319            0           0           0
      6.330437  4.220291  9.610146            0           0           0
      0.000000  6.330437  9.610146            0           0           0
      6.330437  6.330437  7.500000            0           0           0
      0.000000  4.220291  7.500000            0           0           0
      6.341353  4.220291 13.867559            0           0           0
      0.000000  6.332710 13.865955            0           0           0
      6.330585  6.330585 11.723732            0           0           0
      0.000000  4.220291 11.722094            0           0           0

   5 f/i=    0.599276 THz     3.765362 2PiTHz   19.989693 cm-1     2.478405 meV
             X         Y         Z           dx          dy          dz
      4.220291  4.220291 16.285704     0.262389   -0.257445    0.000042
      4.220291  4.220291 17.427502     0.662829   -0.652328    0.000032
      2.110146  0.000000  7.500000            0           0           0
      4.220291  2.110146  7.500000            0           0           0
      2.110146  2.110146  9.610146            0           0           0
      4.220291  0.000000  9.610146            0           0           0
      2.110956  0.000000 11.727558            0           0           0
      4.220291  2.114183 11.732543            0           0           0
      2.107684  2.107684 13.821023            0           0           0
      4.220291  0.000000 13.823373            0           0           0
      2.110146  4.220291  7.500000            0           0           0
      4.220291  6.330437  7.500000            0           0           0
      2.110146  6.330437  9.610146            0           0           0
      4.220291  4.220291  9.610146            0           0           0
      2.114183  4.220291 11.732543            0           0           0
      4.220291  6.326400 11.732543            0           0           0
      2.107684  6.332898 13.821023            0           0           0
      4.220291  4.220291 13.878549            0           0           0
      6.330437  0.000000  7.500000            0           0           0
      0.000000  2.110146  7.500000            0           0           0
      6.330437  2.110146  9.610146            0           0           0
      0.000000  0.000000  9.610146            0           0           0
      6.329626  0.000000 11.727558            0           0           0
      0.000000  2.110956 11.727558            0           0           0
      6.332898  2.107684 13.821023            0           0           0
      0.000000  0.000000 13.824691            0           0           0
      6.330437  4.220291  7.500000            0           0           0
      0.000000  6.330437  7.500000            0           0           0
      6.330437  6.330437  9.610146            0           0           0
      0.000000  4.220291  9.610146            0           0           0
      6.326400  4.220291 11.732543            0           0           0
      0.000000  6.329626 11.727558            0           0           0
      6.332898  6.332898 13.821023            0           0           0
      0.000000  4.220291 13.823373            0           0           0
      2.110146  0.000000  9.610146            0           0           0
      4.220291  2.110146  9.610146            0           0           0
      2.110146  2.110146  7.500000            0           0           0
      4.220291  0.000000  7.500000            0           0           0
      2.107872  0.000000 13.865955            0           0           0
      4.220291  2.099229 13.867559            0           0           0
      2.109998  2.109998 11.723732            0           0           0
      4.220291  0.000000 11.722094            0           0           0
      2.110146  4.220291  9.610146            0           0           0
      4.220291  6.330437  9.610146            0           0           0
      2.110146  6.330437  7.500000            0           0           0
      4.220291  4.220291  7.500000            0           0           0
      2.099229  4.220291 13.867559            0           0           0
      4.220291  6.341353 13.867559            0           0           0
      2.109998  6.330585 11.723732            0           0           0
      4.220291  4.220291 11.733766            0           0           0
      6.330437  0.000000  9.610146            0           0           0
      0.000000  2.110146  9.610146            0           0           0
      6.330437  2.110146  7.500000            0           0           0
      0.000000  0.000000  7.500000            0           0           0
      6.332710  0.000000 13.865955            0           0           0
      0.000000  2.107872 13.865955            0           0           0
      6.330585  2.109998 11.723732            0           0           0
      0.000000  0.000000 11.722319            0           0           0
      6.330437  4.220291  9.610146            0           0           0
      0.000000  6.330437  9.610146            0           0           0
      6.330437  6.330437  7.500000            0           0           0
      0.000000  4.220291  7.500000            0           0           0
      6.341353  4.220291 13.867559            0           0           0
      0.000000  6.332710 13.865955            0           0           0
      6.330585  6.330585 11.723732            0           0           0
      0.000000  4.220291 11.722094            0           0           0

   6 f/i=    0.651888 THz     4.095931 2PiTHz   21.744633 cm-1     2.695990 meV
             X         Y         Z           dx          dy          dz
      4.220291  4.220291 16.285704     0.258371    0.262809    0.002484
      4.220291  4.220291 17.427502     0.651956    0.662658    0.002883
      2.110146  0.000000  7.500000            0           0           0
      4.220291  2.110146  7.500000            0           0           0
      2.110146  2.110146  9.610146            0           0           0
      4.220291  0.000000  9.610146            0           0           0
      2.110956  0.000000 11.727558            0           0           0
      4.220291  2.114183 11.732543            0           0           0
      2.107684  2.107684 13.821023            0           0           0
      4.220291  0.000000 13.823373            0           0           0
      2.110146  4.220291  7.500000            0           0           0
      4.220291  6.330437  7.500000            0           0           0
      2.110146  6.330437  9.610146            0           0           0
      4.220291  4.220291  9.610146            0           0           0
      2.114183  4.220291 11.732543            0           0           0
      4.220291  6.326400 11.732543            0           0           0
      2.107684  6.332898 13.821023            0           0           0
      4.220291  4.220291 13.878549            0           0           0
      6.330437  0.000000  7.500000            0           0           0
      0.000000  2.110146  7.500000            0           0           0
      6.330437  2.110146  9.610146            0           0           0
      0.000000  0.000000  9.610146            0           0           0
      6.329626  0.000000 11.727558            0           0           0
      0.000000  2.110956 11.727558            0           0           0
      6.332898  2.107684 13.821023            0           0           0
      0.000000  0.000000 13.824691            0           0           0
      6.330437  4.220291  7.500000            0           0           0
      0.000000  6.330437  7.500000            0           0           0
      6.330437  6.330437  9.610146            0           0           0
      0.000000  4.220291  9.610146            0           0           0
      6.326400  4.220291 11.732543            0           0           0
      0.000000  6.329626 11.727558            0           0           0
      6.332898  6.332898 13.821023            0           0           0
      0.000000  4.220291 13.823373            0           0           0
      2.110146  0.000000  9.610146            0           0           0
      4.220291  2.110146  9.610146            0           0           0
      2.110146  2.110146  7.500000            0           0           0
      4.220291  0.000000  7.500000            0           0           0
      2.107872  0.000000 13.865955            0           0           0
      4.220291  2.099229 13.867559            0           0           0
      2.109998  2.109998 11.723732            0           0           0
      4.220291  0.000000 11.722094            0           0           0
      2.110146  4.220291  9.610146            0           0           0
      4.220291  6.330437  9.610146            0           0           0
      2.110146  6.330437  7.500000            0           0           0
      4.220291  4.220291  7.500000            0           0           0
      2.099229  4.220291 13.867559            0           0           0
      4.220291  6.341353 13.867559            0           0           0
      2.109998  6.330585 11.723732            0           0           0
      4.220291  4.220291 11.733766            0           0           0
      6.330437  0.000000  9.610146            0           0           0
      0.000000  2.110146  9.610146            0           0           0
      6.330437  2.110146  7.500000            0           0           0
      0.000000  0.000000  7.500000            0           0           0
      6.332710  0.000000 13.865955            0           0           0
      0.000000  2.107872 13.865955            0           0           0
      6.330585  2.109998 11.723732            0           0           0
      0.000000  0.000000 11.722319            0           0           0
      6.330437  4.220291  9.610146            0           0           0
      0.000000  6.330437  9.610146            0           0           0
      6.330437  6.330437  7.500000            0           0           0
      0.000000  4.220291  7.500000            0           0           0
      6.341353  4.220291 13.867559            0           0           0
      0.000000  6.332710 13.865955            0           0           0
      6.330585  6.330585 11.723732            0           0           0
      0.000000  4.220291 11.722094            0           0           0

 Finite differences POTIM=   1.0000000000000000E-002
     LOOP+:  cpu time    110.9265: real time    111.0623
    4ORBIT:  cpu time      0.0000: real time      0.0000

 total amount of memory used by VASP MPI-rank0    66858. kBytes
=======================================================================

   base      :      30000. kBytes
   nonl-proj :      17408. kBytes
   fftplans  :       4923. kBytes
   grid      :       8190. kBytes
   one-center:         73. kBytes
   wavefun   :       6264. kBytes



 General timing and accounting informations for this job:
 ========================================================

                  Total CPU time used (sec):     1537.299
                            User time (sec):     1532.176
                          System time (sec):        5.123
                         Elapsed time (sec):     1561.817

                   Maximum memory used (kb):      273168.
                   Average memory used (kb):          N/A

                          Minor page faults:       379138
                          Major page faults:           49
                 Voluntary context switches:        20135
